TITLE=DGSolution
VARIABLES=X Y rho u v pre c E 
ZONE T=TA, I=201, J=201, DATAPACKING = POINT
0 0 0.138 1.206 1.206 0.029 0.542405 0.273212 
0 0.005 0.138 1.206 1.206 0.029 0.542405 0.273212 
0 0.01 0.138 1.206 1.206 0.029 0.542405 0.273212 
0 0.015 0.138 1.206 1.206 0.029 0.542405 0.273212 
0 0.02 0.138 1.206 1.206 0.029 0.542405 0.273212 
0 0.025 0.138 1.206 1.206 0.029 0.542405 0.273212 
0 0.03 0.138 1.206 1.206 0.029 0.542405 0.273212 
0 0.035 0.138 1.206 1.206 0.029 0.542405 0.273212 
0 0.04 0.138 1.206 1.206 0.029 0.542405 0.273212 
0 0.045 0.138 1.206 1.206 0.029 0.542405 0.273212 
0 0.05 0.138 1.206 1.206 0.029 0.542405 0.273212 
0 0.055 0.138 1.206 1.206 0.029 0.542405 0.273212 
0 0.06 0.138 1.206 1.206 0.029 0.542405 0.273212 
0 0.065 0.138 1.206 1.206 0.029 0.542405 0.273212 
0 0.07 0.138 1.206 1.206 0.029 0.542405 0.273212 
0 0.075 0.138 1.206 1.206 0.029 0.542405 0.273212 
0 0.08 0.138 1.206 1.206 0.029 0.542405 0.273212 
0 0.085 0.138 1.206 1.206 0.029 0.542405 0.273212 
0 0.09 0.138 1.206 1.206 0.029 0.542405 0.273212 
0 0.095 0.138 1.206 1.206 0.029 0.542405 0.273212 
0 0.1 0.138 1.206 1.206 0.029 0.542405 0.273212 
0 0.105 0.138 1.206 1.206 0.029 0.542405 0.273212 
0 0.11 0.138 1.206 1.206 0.029 0.542405 0.273212 
0 0.115 0.138 1.206 1.206 0.029 0.542405 0.273212 
0 0.12 0.138 1.206 1.206 0.029 0.542405 0.273212 
0 0.125 0.138 1.206 1.206 0.029 0.542405 0.273212 
0 0.13 0.138 1.206 1.206 0.029 0.542405 0.273212 
0 0.135 0.138 1.206 1.206 0.029 0.542405 0.273212 
0 0.14 0.138 1.206 1.206 0.029 0.542405 0.273212 
0 0.145 0.138 1.206 1.206 0.029 0.542405 0.273212 
0 0.15 0.138 1.206 1.206 0.029 0.542405 0.273212 
0 0.155 0.138 1.206 1.206 0.029 0.542405 0.273212 
0 0.16 0.138 1.206 1.206 0.029 0.542405 0.273212 
0 0.165 0.138 1.206 1.206 0.029 0.542405 0.273212 
0 0.17 0.138 1.206 1.206 0.029 0.542405 0.273212 
0 0.175 0.138 1.206 1.206 0.029 0.542405 0.273212 
0 0.18 0.138 1.206 1.206 0.029 0.542405 0.273212 
0 0.185 0.138 1.206 1.206 0.029 0.542405 0.273212 
0 0.19 0.138 1.206 1.206 0.029 0.542405 0.273212 
0 0.195 0.138 1.206 1.206 0.029 0.542405 0.273212 
0 0.2 0.138 1.206 1.206 0.029 0.542405 0.273212 
0 0.205 0.138 1.206 1.206 0.029 0.542405 0.273212 
0 0.21 0.138 1.206 1.206 0.029 0.542405 0.273212 
0 0.215 0.138 1.206 1.206 0.029 0.542405 0.273212 
0 0.22 0.138 1.206 1.206 0.029 0.542405 0.273212 
0 0.225 0.138 1.206 1.206 0.029 0.542405 0.273212 
0 0.23 0.138 1.206 1.206 0.029 0.542405 0.273212 
0 0.235 0.138 1.206 1.206 0.029 0.542405 0.273212 
0 0.24 0.138 1.206 1.206 0.029 0.542405 0.273212 
0 0.245 0.138 1.206 1.206 0.029 0.542405 0.273212 
0 0.25 0.138 1.206 1.206 0.029 0.542405 0.273212 
0 0.255 0.138 1.206 1.206 0.029 0.542405 0.273212 
0 0.26 0.138 1.206 1.206 0.029 0.542405 0.273212 
0 0.265 0.138 1.206 1.206 0.029 0.542405 0.273212 
0 0.27 0.138 1.206 1.206 0.029 0.542405 0.273212 
0 0.275 0.138 1.206 1.206 0.029 0.542405 0.273212 
0 0.28 0.138 1.206 1.206 0.029 0.542405 0.273212 
0 0.285 0.138 1.206 1.206 0.029 0.542405 0.273212 
0 0.29 0.138 1.206 1.206 0.029 0.542405 0.273212 
0 0.295 0.138 1.206 1.206 0.029 0.542405 0.273212 
0 0.3 0.138 1.206 1.206 0.029 0.542405 0.273212 
0 0.305 0.138 1.206 1.206 0.029 0.542405 0.273212 
0 0.31 0.138 1.206 1.206 0.029 0.542405 0.273212 
0 0.315 0.138 1.206 1.206 0.029 0.542405 0.273212 
0 0.32 0.138 1.206 1.206 0.029 0.542405 0.273212 
0 0.325 0.138 1.206 1.206 0.029 0.542405 0.273212 
0 0.33 0.138 1.206 1.206 0.029 0.542405 0.273212 
0 0.335 0.138 1.206 1.206 0.029 0.542405 0.273212 
0 0.34 0.138 1.206 1.206 0.029 0.542405 0.273212 
0 0.345 0.138 1.206 1.206 0.029 0.542405 0.273212 
0 0.35 0.138 1.206 1.206 0.029 0.542405 0.273212 
0 0.355 0.138 1.206 1.206 0.029 0.542405 0.273212 
0 0.36 0.138 1.206 1.206 0.029 0.542405 0.273212 
0 0.365 0.138 1.206 1.206 0.029 0.542405 0.273212 
0 0.37 0.138 1.206 1.206 0.029 0.542405 0.273212 
0 0.375 0.138 1.206 1.206 0.029 0.542405 0.273212 
0 0.38 0.138 1.206 1.206 0.029 0.542405 0.273212 
0 0.385 0.138 1.206 1.206 0.029 0.542405 0.273212 
0 0.39 0.138 1.206 1.206 0.029 0.542405 0.273212 
0 0.395 0.138 1.206 1.206 0.029 0.542405 0.273212 
0 0.4 0.138 1.206 1.206 0.029 0.542405 0.273212 
0 0.405 0.138 1.206 1.206 0.029 0.542405 0.273212 
0 0.41 0.138 1.206 1.206 0.029 0.542405 0.273212 
0 0.415 0.138 1.206 1.206 0.029 0.542405 0.273212 
0 0.42 0.138 1.206 1.206 0.029 0.542405 0.273212 
0 0.425 0.138 1.206 1.206 0.029 0.542405 0.273212 
0 0.43 0.138 1.206 1.206 0.029 0.542405 0.273212 
0 0.435 0.138 1.206 1.206 0.029 0.542405 0.273212 
0 0.44 0.138002 1.206 1.20599 0.0290008 0.542408 0.273215 
0 0.445 0.138046 1.206 1.20571 0.0290189 0.542492 0.273277 
0 0.45 0.138708 1.206 1.19926 0.0293957 0.544696 0.274107 
0 0.455 0.160042 1.206 1.03932 0.0435796 0.61743 0.311772 
0 0.46 0.367853 1.206 0.247919 0.189248 0.848678 0.751935 
0 0.465 0.530038 1.206 0.00596082 0.298561 0.888028 1.13186 
0 0.47 0.533097 1.206 -0.00107846 0.300355 0.888135 1.13857 
0 0.475 0.53164 1.206 -0.00156609 0.299304 0.887793 1.13488 
0 0.48 0.531996 1.206 -0.00108639 0.29957 0.887889 1.1358 
0 0.485 0.532651 1.206 -9.28799e-05 0.300075 0.888092 1.13754 
0 0.49 0.532894 1.206 0.000255561 0.300289 0.888206 1.13825 
0 0.495 0.532721 1.206 -0.000132023 0.300176 0.888182 1.13784 
0 0.5 0.532612 1.206 -0.000563103 0.300101 0.888162 1.13758 
0 0.505 0.532922 1.206 -0.000413487 0.30032 0.888227 1.13835 
0 0.51 0.533226 1.206 -0.000124684 0.300551 0.888316 1.13915 
0 0.515 0.533024 1.206 -0.000455262 0.300406 0.88827 1.13864 
0 0.52 0.532434 1.206 -0.00145537 0.299922 0.888045 1.137 
0 0.525 0.532102 1.206 -0.00182362 0.299658 0.887932 1.1361 
0 0.53 0.532631 1.206 -0.000792844 0.300068 0.888097 1.13751 
0 0.535 0.532998 1.206 0.000204959 0.300401 0.888284 1.13861 
0 0.54 0.532969 1.206 0.000232888 0.300372 0.888265 1.13852 
0 0.545 0.532674 1.206 -0.000156742 0.30014 0.888168 1.13772 
0 0.55 0.532621 1.206 -0.000238418 0.300087 0.888133 1.13755 
0 0.555 0.53265 1.206 -0.000200308 0.300099 0.888128 1.1376 
0 0.56 0.532609 1.206 -0.000235446 0.300067 0.888114 1.13749 
0 0.565 0.532354 1.206 -0.000624663 0.299874 0.888041 1.13682 
0 0.57 0.532205 1.206 -0.00087163 0.299755 0.88799 1.13642 
0 0.575 0.532484 1.206 -0.000445621 0.299969 0.888074 1.13716 
0 0.58 0.532806 1.206 0.000215256 0.300247 0.888216 1.13808 
0 0.585 0.53305 1.206 0.00060049 0.300437 0.888294 1.13874 
0 0.59 0.532946 1.206 0.000268844 0.300328 0.888219 1.13839 
0 0.595 0.532308 1.206 -0.000635215 0.299845 0.888038 1.13672 
0 0.6 0.532183 1.206 -0.000959811 0.299726 0.887965 1.13633 
0 0.605 0.532388 1.206 -0.00064767 0.299881 0.888023 1.13687 
0 0.61 0.532606 1.206 -0.0002936 0.300058 0.888104 1.13747 
0 0.615 0.53271 1.206 -0.000121664 0.300148 0.88815 1.13777 
0 0.62 0.532732 1.206 -8.08592e-05 0.300173 0.888169 1.13785 
0 0.625 0.532737 1.206 -5.82062e-05 0.300183 0.888179 1.13787 
0 0.63 0.532733 1.206 -5.36445e-05 0.30018 0.888178 1.13786 
0 0.635 0.532653 1.206 -0.000171893 0.300114 0.888146 1.13764 
0 0.64 0.532419 1.206 -0.000568914 0.299924 0.888061 1.13699 
0 0.645 0.532243 1.206 -0.000877822 0.299781 0.887996 1.13651 
0 0.65 0.532351 1.206 -0.000721485 0.299864 0.888029 1.1368 
0 0.655 0.532628 1.206 -0.000274449 0.300083 0.888122 1.13755 
0 0.66 0.532785 1.206 -8.65035e-06 0.300211 0.888181 1.13798 
0 0.665 0.532788 1.206 3.05767e-06 0.300215 0.888184 1.13799 
0 0.67 0.532765 1.206 -2.58098e-05 0.300197 0.888176 1.13793 
0 0.675 0.532726 1.206 -8.68419e-05 0.300165 0.888162 1.13782 
0 0.68 0.532612 1.206 -0.00027333 0.300077 0.888126 1.13752 
0 0.685 0.532425 1.206 -0.000587706 0.299931 0.888066 1.13702 
0 0.69 0.532312 1.206 -0.000782319 0.299843 0.888031 1.13671 
0 0.695 0.53243 1.206 -0.000590118 0.299937 0.888071 1.13704 
0 0.7 0.532692 1.206 -0.000165943 0.300142 0.888157 1.13774 
0 0.705 0.532843 1.206 0.00014433 0.300272 0.888223 1.13817 
0 0.71 0.53292 1.206 0.000213959 0.300323 0.888233 1.13836 
0 0.715 0.532707 1.206 -0.000116545 0.300155 0.888163 1.13778 
0 0.72 0.532416 1.206 -0.000573532 0.299927 0.888067 1.137 
0 0.725 0.53236 1.206 -0.000704826 0.299871 0.888032 1.13682 
0 0.73 0.532455 1.206 -0.000548864 0.299943 0.88806 1.13707 
0 0.735 0.532584 1.206 -0.000336485 0.300046 0.888104 1.13742 
0 0.74 0.532689 1.206 -0.00017254 0.300127 0.888137 1.1377 
0 0.745 0.532768 1.206 -7.14983e-05 0.300177 0.888145 1.13788 
0 0.75 0.532832 1.206 -2.60494e-05 0.300196 0.88812 1.13798 
0 0.755 0.53283 1.206 -0.000103052 0.300152 0.888055 1.13786 
0 0.76 0.532728 1.206 -0.000352801 0.300028 0.887957 1.13748 
0 0.765 0.5326 1.206 -0.000625129 0.2999 0.887875 1.13707 
0 0.77 0.532545 1.206 -0.000692403 0.29988 0.887891 1.13698 
0 0.775 0.532311 1.206 -0.000556409 0.299958 0.8882 1.137 
0 0.78 0.531271 1.206 -0.00029321 0.300068 0.889233 1.13652 
0 0.785 0.529322 1.206 -9.62085e-05 0.300166 0.891014 1.13535 
0 0.79 0.527269 1.206 2.47231e-06 0.300206 0.892807 1.13395 
0 0.795 0.526199 1.206 9.24766e-07 0.300209 0.893718 1.13318 
0 0.8 0.526606 1.206 -0.000130897 0.300149 0.893284 1.13333 
0 0.805 0.528174 1.206 -0.000384015 0.30004 0.891795 1.1342 
0 0.81 0.530037 1.206 -0.000678855 0.299915 0.890042 1.13524 
0 0.815 0.531468 1.206 -0.000742032 0.299904 0.888825 1.13625 
0 0.82 0.53216 1.206 -0.000471174 0.30003 0.888435 1.13707 
0 0.825 0.532489 1.206 -0.000142344 0.300186 0.88839 1.1377 
0 0.83 0.532616 1.206 6.23718e-05 0.30026 0.888394 1.13798 
0 0.835 0.532618 1.206 5.60602e-05 0.300247 0.888373 1.13795 
0 0.84 0.532429 1.206 -0.000213861 0.300099 0.888311 1.13744 
0 0.845 0.532249 1.206 -0.000539977 0.299957 0.888252 1.13695 
0 0.85 0.532207 1.206 -0.000643197 0.299925 0.88824 1.13684 
0 0.855 0.532284 1.206 -0.000549638 0.299988 0.888269 1.13706 
0 0.86 0.532397 1.206 -0.000386279 0.300078 0.888308 1.13736 
0 0.865 0.532499 1.206 -0.000216479 0.300159 0.888342 1.13764 
0 0.87 0.53256 1.206 -8.76369e-05 0.300207 0.888363 1.1378 
0 0.875 0.532551 1.206 -6.09018e-05 0.3002 0.888359 1.13778 
0 0.88 0.532453 1.206 -0.000198217 0.300122 0.888326 1.13751 
0 0.885 0.532309 1.206 -0.000439497 0.300008 0.888278 1.13713 
0 0.89 0.532207 1.206 -0.000627275 0.299928 0.888244 1.13685 
0 0.895 0.5322 1.206 -0.000660048 0.299923 0.888241 1.13683 
0 0.9 0.532285 1.206 -0.000537391 0.299988 0.888267 1.13706 
0 0.905 0.532409 1.206 -0.000336178 0.300084 0.888307 1.13739 
0 0.91 0.53253 1.206 -0.000119042 0.300179 0.888346 1.13771 
0 0.915 0.532586 1.206 2.34171e-05 0.300227 0.88837 1.13787 
0 0.92 0.532573 1.206 1.27098e-05 0.300215 0.888364 1.13783 
0 0.925 0.532456 1.206 -0.000167442 0.300125 0.888328 1.13752 
0 0.93 0.532299 1.206 -0.000473434 0.300001 0.888276 1.1371 
0 0.935 0.532185 1.206 -0.000713847 0.299911 0.888237 1.13679 
0 0.94 0.532229 1.206 -0.000692527 0.299944 0.888249 1.13691 
0 0.945 0.53239 1.206 -0.000420589 0.300072 0.888304 1.13734 
0 0.95 0.532576 1.206 -8.33082e-05 0.300217 0.888364 1.13784 
0 0.955 0.53262 1.206 5.8479e-05 0.300255 0.888384 1.13797 
0 0.96 0.532546 1.206 -4.00493e-05 0.300192 0.888353 1.13776 
0 0.965 0.532369 1.206 -0.000291426 0.300056 0.888298 1.13729 
0 0.97 0.532253 1.206 -0.00051983 0.299964 0.888259 1.13697 
0 0.975 0.532223 1.206 -0.000615634 0.29994 0.888249 1.13689 
0 0.98 0.532307 1.206 -0.000544552 0.300002 0.888269 1.13711 
0 0.985 0.532436 1.206 -0.000367486 0.300101 0.88831 1.13745 
0 0.99 0.532534 1.206 -0.000203081 0.300181 0.888346 1.13772 
0 0.995 0.532603 1.206 -6.50741e-05 0.300237 0.888371 1.13791 
0 1 0.532382 1.206 -0.000278877 0.300088 0.888335 1.13738 
0.005 0 0.138 1.206 1.206 0.029 0.542405 0.273212 
0.005 0.005 0.138 1.206 1.206 0.029 0.542405 0.273212 
0.005 0.01 0.138 1.206 1.206 0.029 0.542405 0.273212 
0.005 0.015 0.138 1.206 1.206 0.029 0.542405 0.273212 
0.005 0.02 0.138 1.206 1.206 0.029 0.542405 0.273212 
0.005 0.025 0.138 1.206 1.206 0.029 0.542405 0.273212 
0.005 0.03 0.138 1.206 1.206 0.029 0.542405 0.273212 
0.005 0.035 0.138 1.206 1.206 0.029 0.542405 0.273212 
0.005 0.04 0.138 1.206 1.206 0.029 0.542405 0.273212 
0.005 0.045 0.138 1.206 1.206 0.029 0.542405 0.273212 
0.005 0.05 0.138 1.206 1.206 0.029 0.542405 0.273212 
0.005 0.055 0.138 1.206 1.206 0.029 0.542405 0.273212 
0.005 0.06 0.138 1.206 1.206 0.029 0.542405 0.273212 
0.005 0.065 0.138 1.206 1.206 0.029 0.542405 0.273212 
0.005 0.07 0.138 1.206 1.206 0.029 0.542405 0.273212 
0.005 0.075 0.138 1.206 1.206 0.029 0.542405 0.273212 
0.005 0.08 0.138 1.206 1.206 0.029 0.542405 0.273212 
0.005 0.085 0.138 1.206 1.206 0.029 0.542405 0.273212 
0.005 0.09 0.138 1.206 1.206 0.029 0.542405 0.273212 
0.005 0.095 0.138 1.206 1.206 0.029 0.542405 0.273212 
0.005 0.1 0.138 1.206 1.206 0.029 0.542405 0.273212 
0.005 0.105 0.138 1.206 1.206 0.029 0.542405 0.273212 
0.005 0.11 0.138 1.206 1.206 0.029 0.542405 0.273212 
0.005 0.115 0.138 1.206 1.206 0.029 0.542405 0.273212 
0.005 0.12 0.138 1.206 1.206 0.029 0.542405 0.273212 
0.005 0.125 0.138 1.206 1.206 0.029 0.542405 0.273212 
0.005 0.13 0.138 1.206 1.206 0.029 0.542405 0.273212 
0.005 0.135 0.138 1.206 1.206 0.029 0.542405 0.273212 
0.005 0.14 0.138 1.206 1.206 0.029 0.542405 0.273212 
0.005 0.145 0.138 1.206 1.206 0.029 0.542405 0.273212 
0.005 0.15 0.138 1.206 1.206 0.029 0.542405 0.273212 
0.005 0.155 0.138 1.206 1.206 0.029 0.542405 0.273212 
0.005 0.16 0.138 1.206 1.206 0.029 0.542405 0.273212 
0.005 0.165 0.138 1.206 1.206 0.029 0.542405 0.273212 
0.005 0.17 0.138 1.206 1.206 0.029 0.542405 0.273212 
0.005 0.175 0.138 1.206 1.206 0.029 0.542405 0.273212 
0.005 0.18 0.138 1.206 1.206 0.029 0.542405 0.273212 
0.005 0.185 0.138 1.206 1.206 0.029 0.542405 0.273212 
0.005 0.19 0.138 1.206 1.206 0.029 0.542405 0.273212 
0.005 0.195 0.138 1.206 1.206 0.029 0.542405 0.273212 
0.005 0.2 0.138 1.206 1.206 0.029 0.542405 0.273212 
0.005 0.205 0.138 1.206 1.206 0.029 0.542405 0.273212 
0.005 0.21 0.138 1.206 1.206 0.029 0.542405 0.273212 
0.005 0.215 0.138 1.206 1.206 0.029 0.542405 0.273212 
0.005 0.22 0.138 1.206 1.206 0.029 0.542405 0.273212 
0.005 0.225 0.138 1.206 1.206 0.029 0.542405 0.273212 
0.005 0.23 0.138 1.206 1.206 0.029 0.542405 0.273212 
0.005 0.235 0.138 1.206 1.206 0.029 0.542405 0.273212 
0.005 0.24 0.138 1.206 1.206 0.029 0.542405 0.273212 
0.005 0.245 0.138 1.206 1.206 0.029 0.542405 0.273212 
0.005 0.25 0.138 1.206 1.206 0.029 0.542405 0.273212 
0.005 0.255 0.138 1.206 1.206 0.029 0.542405 0.273212 
0.005 0.26 0.138 1.206 1.206 0.029 0.542405 0.273212 
0.005 0.265 0.138 1.206 1.206 0.029 0.542405 0.273212 
0.005 0.27 0.138 1.206 1.206 0.029 0.542405 0.273212 
0.005 0.275 0.138 1.206 1.206 0.029 0.542405 0.273212 
0.005 0.28 0.138 1.206 1.206 0.029 0.542405 0.273212 
0.005 0.285 0.138 1.206 1.206 0.029 0.542405 0.273212 
0.005 0.29 0.138 1.206 1.206 0.029 0.542405 0.273212 
0.005 0.295 0.138 1.206 1.206 0.029 0.542405 0.273212 
0.005 0.3 0.138 1.206 1.206 0.029 0.542405 0.273212 
0.005 0.305 0.138 1.206 1.206 0.029 0.542405 0.273212 
0.005 0.31 0.138 1.206 1.206 0.029 0.542405 0.273212 
0.005 0.315 0.138 1.206 1.206 0.029 0.542405 0.273212 
0.005 0.32 0.138 1.206 1.206 0.029 0.542405 0.273212 
0.005 0.325 0.138 1.206 1.206 0.029 0.542405 0.273212 
0.005 0.33 0.138 1.206 1.206 0.029 0.542405 0.273212 
0.005 0.335 0.138 1.206 1.206 0.029 0.542405 0.273212 
0.005 0.34 0.138 1.206 1.206 0.029 0.542405 0.273212 
0.005 0.345 0.138 1.206 1.206 0.029 0.542405 0.273212 
0.005 0.35 0.138 1.206 1.206 0.029 0.542405 0.273212 
0.005 0.355 0.138 1.206 1.206 0.029 0.542405 0.273212 
0.005 0.36 0.138 1.206 1.206 0.029 0.542405 0.273212 
0.005 0.365 0.138 1.206 1.206 0.029 0.542405 0.273212 
0.005 0.37 0.138 1.206 1.206 0.029 0.542405 0.273212 
0.005 0.375 0.138 1.206 1.206 0.029 0.542405 0.273212 
0.005 0.38 0.138 1.206 1.206 0.029 0.542405 0.273212 
0.005 0.385 0.138 1.206 1.206 0.029 0.542405 0.273212 
0.005 0.39 0.138 1.206 1.206 0.029 0.542405 0.273212 
0.005 0.395 0.138 1.206 1.206 0.029 0.542405 0.273212 
0.005 0.4 0.138 1.206 1.206 0.029 0.542405 0.273212 
0.005 0.405 0.138 1.206 1.206 0.029 0.542405 0.273212 
0.005 0.41 0.138 1.206 1.206 0.029 0.542405 0.273212 
0.005 0.415 0.138 1.206 1.206 0.029 0.542405 0.273212 
0.005 0.42 0.138 1.206 1.206 0.029 0.542405 0.273212 
0.005 0.425 0.138 1.206 1.206 0.029 0.542405 0.273212 
0.005 0.43 0.138 1.206 1.206 0.029 0.542405 0.273212 
0.005 0.435 0.138 1.206 1.206 0.029 0.542405 0.273212 
0.005 0.44 0.138002 1.206 1.20599 0.0290008 0.542408 0.273215 
0.005 0.445 0.138046 1.206 1.20571 0.0290189 0.542492 0.273277 
0.005 0.45 0.138708 1.206 1.19926 0.0293957 0.544696 0.274107 
0.005 0.455 0.160042 1.206 1.03932 0.0435796 0.61743 0.311772 
0.005 0.46 0.367853 1.206 0.247919 0.189248 0.848678 0.751935 
0.005 0.465 0.530038 1.206 0.00596082 0.298561 0.888028 1.13186 
0.005 0.47 0.533097 1.206 -0.00107846 0.300355 0.888135 1.13857 
0.005 0.475 0.53164 1.206 -0.00156609 0.299304 0.887793 1.13488 
0.005 0.48 0.531996 1.206 -0.00108639 0.29957 0.887889 1.1358 
0.005 0.485 0.532651 1.206 -9.28799e-05 0.300075 0.888092 1.13754 
0.005 0.49 0.532894 1.206 0.000255561 0.300289 0.888206 1.13825 
0.005 0.495 0.532721 1.206 -0.000132023 0.300176 0.888182 1.13784 
0.005 0.5 0.532612 1.206 -0.000563103 0.300101 0.888162 1.13758 
0.005 0.505 0.532922 1.206 -0.000413487 0.30032 0.888227 1.13835 
0.005 0.51 0.533226 1.206 -0.000124684 0.300551 0.888316 1.13915 
0.005 0.515 0.533024 1.206 -0.000455262 0.300406 0.88827 1.13864 
0.005 0.52 0.532434 1.206 -0.00145537 0.299922 0.888045 1.137 
0.005 0.525 0.532102 1.206 -0.00182362 0.299658 0.887932 1.1361 
0.005 0.53 0.532631 1.206 -0.000792844 0.300068 0.888097 1.13751 
0.005 0.535 0.532998 1.206 0.000204959 0.300401 0.888284 1.13861 
0.005 0.54 0.532969 1.206 0.000232888 0.300372 0.888265 1.13852 
0.005 0.545 0.532674 1.206 -0.000156742 0.30014 0.888168 1.13772 
0.005 0.55 0.532621 1.206 -0.000238418 0.300087 0.888133 1.13755 
0.005 0.555 0.53265 1.206 -0.000200308 0.300099 0.888128 1.1376 
0.005 0.56 0.532609 1.206 -0.000235446 0.300067 0.888114 1.13749 
0.005 0.565 0.532354 1.206 -0.000624663 0.299874 0.888041 1.13682 
0.005 0.57 0.532205 1.206 -0.00087163 0.299755 0.88799 1.13642 
0.005 0.575 0.532484 1.206 -0.000445621 0.299969 0.888074 1.13716 
0.005 0.58 0.532806 1.206 0.000215256 0.300247 0.888216 1.13808 
0.005 0.585 0.53305 1.206 0.00060049 0.300437 0.888294 1.13874 
0.005 0.59 0.532946 1.206 0.000268844 0.300328 0.888219 1.13839 
0.005 0.595 0.532308 1.206 -0.000635215 0.299845 0.888038 1.13672 
0.005 0.6 0.532183 1.206 -0.000959811 0.299726 0.887965 1.13633 
0.005 0.605 0.532388 1.206 -0.00064767 0.299881 0.888023 1.13687 
0.005 0.61 0.532606 1.206 -0.0002936 0.300058 0.888104 1.13747 
0.005 0.615 0.53271 1.206 -0.000121664 0.300148 0.88815 1.13777 
0.005 0.62 0.532732 1.206 -8.08592e-05 0.300173 0.888169 1.13785 
0.005 0.625 0.532737 1.206 -5.82062e-05 0.300183 0.888179 1.13787 
0.005 0.63 0.532733 1.206 -5.36445e-05 0.30018 0.888178 1.13786 
0.005 0.635 0.532653 1.206 -0.000171893 0.300114 0.888146 1.13764 
0.005 0.64 0.532419 1.206 -0.000568914 0.299924 0.888061 1.13699 
0.005 0.645 0.532243 1.206 -0.000877822 0.299781 0.887996 1.13651 
0.005 0.65 0.532351 1.206 -0.000721485 0.299864 0.888029 1.1368 
0.005 0.655 0.532628 1.206 -0.000274449 0.300083 0.888122 1.13755 
0.005 0.66 0.532785 1.206 -8.65035e-06 0.300211 0.888181 1.13798 
0.005 0.665 0.532788 1.206 3.05767e-06 0.300215 0.888184 1.13799 
0.005 0.67 0.532765 1.206 -2.58098e-05 0.300197 0.888176 1.13793 
0.005 0.675 0.532726 1.206 -8.68419e-05 0.300165 0.888162 1.13782 
0.005 0.68 0.532612 1.206 -0.00027333 0.300077 0.888126 1.13752 
0.005 0.685 0.532425 1.206 -0.000587706 0.299931 0.888066 1.13702 
0.005 0.69 0.532312 1.206 -0.000782319 0.299843 0.888031 1.13671 
0.005 0.695 0.53243 1.206 -0.000590118 0.299937 0.888071 1.13704 
0.005 0.7 0.532692 1.206 -0.000165943 0.300142 0.888157 1.13774 
0.005 0.705 0.532843 1.206 0.00014433 0.300272 0.888223 1.13817 
0.005 0.71 0.53292 1.206 0.000213959 0.300323 0.888233 1.13836 
0.005 0.715 0.532707 1.206 -0.000116545 0.300155 0.888163 1.13778 
0.005 0.72 0.532416 1.206 -0.000573532 0.299927 0.888067 1.137 
0.005 0.725 0.53236 1.206 -0.000704826 0.299871 0.888032 1.13682 
0.005 0.73 0.532455 1.206 -0.000548864 0.299943 0.88806 1.13707 
0.005 0.735 0.532584 1.206 -0.000336485 0.300046 0.888104 1.13742 
0.005 0.74 0.532689 1.206 -0.00017254 0.300127 0.888137 1.1377 
0.005 0.745 0.532768 1.206 -7.14983e-05 0.300177 0.888145 1.13788 
0.005 0.75 0.532832 1.206 -2.60494e-05 0.300196 0.88812 1.13798 
0.005 0.755 0.53283 1.206 -0.000103052 0.300152 0.888055 1.13786 
0.005 0.76 0.532728 1.206 -0.000352801 0.300028 0.887957 1.13748 
0.005 0.765 0.5326 1.206 -0.000625129 0.2999 0.887875 1.13707 
0.005 0.77 0.532545 1.206 -0.000692403 0.29988 0.887891 1.13698 
0.005 0.775 0.532311 1.206 -0.000556409 0.299958 0.8882 1.137 
0.005 0.78 0.531271 1.206 -0.00029321 0.300068 0.889233 1.13652 
0.005 0.785 0.529322 1.206 -9.62085e-05 0.300166 0.891014 1.13535 
0.005 0.79 0.527269 1.206 2.47231e-06 0.300206 0.892807 1.13395 
0.005 0.795 0.526199 1.206 9.24766e-07 0.300209 0.893718 1.13318 
0.005 0.8 0.526606 1.206 -0.000130897 0.300149 0.893284 1.13333 
0.005 0.805 0.528174 1.206 -0.000384015 0.30004 0.891795 1.1342 
0.005 0.81 0.530037 1.206 -0.000678855 0.299915 0.890042 1.13524 
0.005 0.815 0.531468 1.206 -0.000742032 0.299904 0.888825 1.13625 
0.005 0.82 0.53216 1.206 -0.000471174 0.30003 0.888435 1.13707 
0.005 0.825 0.532489 1.206 -0.000142344 0.300186 0.88839 1.1377 
0.005 0.83 0.532616 1.206 6.23718e-05 0.30026 0.888394 1.13798 
0.005 0.835 0.532618 1.206 5.60602e-05 0.300247 0.888373 1.13795 
0.005 0.84 0.532429 1.206 -0.000213861 0.300099 0.888311 1.13744 
0.005 0.845 0.532249 1.206 -0.000539977 0.299957 0.888252 1.13695 
0.005 0.85 0.532207 1.206 -0.000643197 0.299925 0.88824 1.13684 
0.005 0.855 0.532284 1.206 -0.000549638 0.299988 0.888269 1.13706 
0.005 0.86 0.532397 1.206 -0.000386279 0.300078 0.888308 1.13736 
0.005 0.865 0.532499 1.206 -0.000216479 0.300159 0.888342 1.13764 
0.005 0.87 0.53256 1.206 -8.76369e-05 0.300207 0.888363 1.1378 
0.005 0.875 0.532551 1.206 -6.09018e-05 0.3002 0.888359 1.13778 
0.005 0.88 0.532453 1.206 -0.000198217 0.300122 0.888326 1.13751 
0.005 0.885 0.532309 1.206 -0.000439497 0.300008 0.888278 1.13713 
0.005 0.89 0.532207 1.206 -0.000627275 0.299928 0.888244 1.13685 
0.005 0.895 0.5322 1.206 -0.000660048 0.299923 0.888241 1.13683 
0.005 0.9 0.532285 1.206 -0.000537391 0.299988 0.888267 1.13706 
0.005 0.905 0.532409 1.206 -0.000336178 0.300084 0.888307 1.13739 
0.005 0.91 0.53253 1.206 -0.000119042 0.300179 0.888346 1.13771 
0.005 0.915 0.532586 1.206 2.34171e-05 0.300227 0.88837 1.13787 
0.005 0.92 0.532573 1.206 1.27098e-05 0.300215 0.888364 1.13783 
0.005 0.925 0.532456 1.206 -0.000167442 0.300125 0.888328 1.13752 
0.005 0.93 0.532299 1.206 -0.000473434 0.300001 0.888276 1.1371 
0.005 0.935 0.532185 1.206 -0.000713847 0.299911 0.888237 1.13679 
0.005 0.94 0.532229 1.206 -0.000692527 0.299944 0.888249 1.13691 
0.005 0.945 0.53239 1.206 -0.000420589 0.300072 0.888304 1.13734 
0.005 0.95 0.532576 1.206 -8.33082e-05 0.300217 0.888364 1.13784 
0.005 0.955 0.53262 1.206 5.8479e-05 0.300255 0.888384 1.13797 
0.005 0.96 0.532546 1.206 -4.00493e-05 0.300192 0.888353 1.13776 
0.005 0.965 0.532369 1.206 -0.000291426 0.300056 0.888298 1.13729 
0.005 0.97 0.532253 1.206 -0.00051983 0.299964 0.888259 1.13697 
0.005 0.975 0.532223 1.206 -0.000615634 0.29994 0.888249 1.13689 
0.005 0.98 0.532307 1.206 -0.000544552 0.300002 0.888269 1.13711 
0.005 0.985 0.532436 1.206 -0.000367486 0.300101 0.88831 1.13745 
0.005 0.99 0.532534 1.206 -0.000203081 0.300181 0.888346 1.13772 
0.005 0.995 0.532603 1.206 -6.50741e-05 0.300237 0.888371 1.13791 
0.005 1 0.532382 1.206 -0.000278877 0.300088 0.888335 1.13738 
0.01 0 0.138 1.206 1.206 0.029 0.542405 0.273212 
0.01 0.005 0.138 1.206 1.206 0.029 0.542405 0.273212 
0.01 0.01 0.138 1.206 1.206 0.029 0.542405 0.273212 
0.01 0.015 0.138 1.206 1.206 0.029 0.542405 0.273212 
0.01 0.02 0.138 1.206 1.206 0.029 0.542405 0.273212 
0.01 0.025 0.138 1.206 1.206 0.029 0.542405 0.273212 
0.01 0.03 0.138 1.206 1.206 0.029 0.542405 0.273212 
0.01 0.035 0.138 1.206 1.206 0.029 0.542405 0.273212 
0.01 0.04 0.138 1.206 1.206 0.029 0.542405 0.273212 
0.01 0.045 0.138 1.206 1.206 0.029 0.542405 0.273212 
0.01 0.05 0.138 1.206 1.206 0.029 0.542405 0.273212 
0.01 0.055 0.138 1.206 1.206 0.029 0.542405 0.273212 
0.01 0.06 0.138 1.206 1.206 0.029 0.542405 0.273212 
0.01 0.065 0.138 1.206 1.206 0.029 0.542405 0.273212 
0.01 0.07 0.138 1.206 1.206 0.029 0.542405 0.273212 
0.01 0.075 0.138 1.206 1.206 0.029 0.542405 0.273212 
0.01 0.08 0.138 1.206 1.206 0.029 0.542405 0.273212 
0.01 0.085 0.138 1.206 1.206 0.029 0.542405 0.273212 
0.01 0.09 0.138 1.206 1.206 0.029 0.542405 0.273212 
0.01 0.095 0.138 1.206 1.206 0.029 0.542405 0.273212 
0.01 0.1 0.138 1.206 1.206 0.029 0.542405 0.273212 
0.01 0.105 0.138 1.206 1.206 0.029 0.542405 0.273212 
0.01 0.11 0.138 1.206 1.206 0.029 0.542405 0.273212 
0.01 0.115 0.138 1.206 1.206 0.029 0.542405 0.273212 
0.01 0.12 0.138 1.206 1.206 0.029 0.542405 0.273212 
0.01 0.125 0.138 1.206 1.206 0.029 0.542405 0.273212 
0.01 0.13 0.138 1.206 1.206 0.029 0.542405 0.273212 
0.01 0.135 0.138 1.206 1.206 0.029 0.542405 0.273212 
0.01 0.14 0.138 1.206 1.206 0.029 0.542405 0.273212 
0.01 0.145 0.138 1.206 1.206 0.029 0.542405 0.273212 
0.01 0.15 0.138 1.206 1.206 0.029 0.542405 0.273212 
0.01 0.155 0.138 1.206 1.206 0.029 0.542405 0.273212 
0.01 0.16 0.138 1.206 1.206 0.029 0.542405 0.273212 
0.01 0.165 0.138 1.206 1.206 0.029 0.542405 0.273212 
0.01 0.17 0.138 1.206 1.206 0.029 0.542405 0.273212 
0.01 0.175 0.138 1.206 1.206 0.029 0.542405 0.273212 
0.01 0.18 0.138 1.206 1.206 0.029 0.542405 0.273212 
0.01 0.185 0.138 1.206 1.206 0.029 0.542405 0.273212 
0.01 0.19 0.138 1.206 1.206 0.029 0.542405 0.273212 
0.01 0.195 0.138 1.206 1.206 0.029 0.542405 0.273212 
0.01 0.2 0.138 1.206 1.206 0.029 0.542405 0.273212 
0.01 0.205 0.138 1.206 1.206 0.029 0.542405 0.273212 
0.01 0.21 0.138 1.206 1.206 0.029 0.542405 0.273212 
0.01 0.215 0.138 1.206 1.206 0.029 0.542405 0.273212 
0.01 0.22 0.138 1.206 1.206 0.029 0.542405 0.273212 
0.01 0.225 0.138 1.206 1.206 0.029 0.542405 0.273212 
0.01 0.23 0.138 1.206 1.206 0.029 0.542405 0.273212 
0.01 0.235 0.138 1.206 1.206 0.029 0.542405 0.273212 
0.01 0.24 0.138 1.206 1.206 0.029 0.542405 0.273212 
0.01 0.245 0.138 1.206 1.206 0.029 0.542405 0.273212 
0.01 0.25 0.138 1.206 1.206 0.029 0.542405 0.273212 
0.01 0.255 0.138 1.206 1.206 0.029 0.542405 0.273212 
0.01 0.26 0.138 1.206 1.206 0.029 0.542405 0.273212 
0.01 0.265 0.138 1.206 1.206 0.029 0.542405 0.273212 
0.01 0.27 0.138 1.206 1.206 0.029 0.542405 0.273212 
0.01 0.275 0.138 1.206 1.206 0.029 0.542405 0.273212 
0.01 0.28 0.138 1.206 1.206 0.029 0.542405 0.273212 
0.01 0.285 0.138 1.206 1.206 0.029 0.542405 0.273212 
0.01 0.29 0.138 1.206 1.206 0.029 0.542405 0.273212 
0.01 0.295 0.138 1.206 1.206 0.029 0.542405 0.273212 
0.01 0.3 0.138 1.206 1.206 0.029 0.542405 0.273212 
0.01 0.305 0.138 1.206 1.206 0.029 0.542405 0.273212 
0.01 0.31 0.138 1.206 1.206 0.029 0.542405 0.273212 
0.01 0.315 0.138 1.206 1.206 0.029 0.542405 0.273212 
0.01 0.32 0.138 1.206 1.206 0.029 0.542405 0.273212 
0.01 0.325 0.138 1.206 1.206 0.029 0.542405 0.273212 
0.01 0.33 0.138 1.206 1.206 0.029 0.542405 0.273212 
0.01 0.335 0.138 1.206 1.206 0.029 0.542405 0.273212 
0.01 0.34 0.138 1.206 1.206 0.029 0.542405 0.273212 
0.01 0.345 0.138 1.206 1.206 0.029 0.542405 0.273212 
0.01 0.35 0.138 1.206 1.206 0.029 0.542405 0.273212 
0.01 0.355 0.138 1.206 1.206 0.029 0.542405 0.273212 
0.01 0.36 0.138 1.206 1.206 0.029 0.542405 0.273212 
0.01 0.365 0.138 1.206 1.206 0.029 0.542405 0.273212 
0.01 0.37 0.138 1.206 1.206 0.029 0.542405 0.273212 
0.01 0.375 0.138 1.206 1.206 0.029 0.542405 0.273212 
0.01 0.38 0.138 1.206 1.206 0.029 0.542405 0.273212 
0.01 0.385 0.138 1.206 1.206 0.029 0.542405 0.273212 
0.01 0.39 0.138 1.206 1.206 0.029 0.542405 0.273212 
0.01 0.395 0.138 1.206 1.206 0.029 0.542405 0.273212 
0.01 0.4 0.138 1.206 1.206 0.029 0.542405 0.273212 
0.01 0.405 0.138 1.206 1.206 0.029 0.542405 0.273212 
0.01 0.41 0.138 1.206 1.206 0.029 0.542405 0.273212 
0.01 0.415 0.138 1.206 1.206 0.029 0.542405 0.273212 
0.01 0.42 0.138 1.206 1.206 0.029 0.542405 0.273212 
0.01 0.425 0.138 1.206 1.206 0.029 0.542405 0.273212 
0.01 0.43 0.138 1.206 1.206 0.029 0.542405 0.273212 
0.01 0.435 0.138 1.206 1.206 0.029 0.542405 0.273212 
0.01 0.44 0.138002 1.206 1.20599 0.0290008 0.542408 0.273215 
0.01 0.445 0.138046 1.206 1.20571 0.0290189 0.542492 0.273277 
0.01 0.45 0.138708 1.206 1.19926 0.0293957 0.544696 0.274107 
0.01 0.455 0.160042 1.206 1.03932 0.0435796 0.61743 0.311772 
0.01 0.46 0.367853 1.206 0.247919 0.189248 0.848678 0.751935 
0.01 0.465 0.530038 1.206 0.00596082 0.298561 0.888028 1.13186 
0.01 0.47 0.533097 1.206 -0.00107846 0.300355 0.888135 1.13857 
0.01 0.475 0.53164 1.206 -0.00156609 0.299304 0.887793 1.13488 
0.01 0.48 0.531996 1.206 -0.00108639 0.29957 0.887889 1.1358 
0.01 0.485 0.532651 1.206 -9.28799e-05 0.300075 0.888092 1.13754 
0.01 0.49 0.532894 1.206 0.000255561 0.300289 0.888206 1.13825 
0.01 0.495 0.532721 1.206 -0.000132023 0.300176 0.888182 1.13784 
0.01 0.5 0.532612 1.206 -0.000563103 0.300101 0.888162 1.13758 
0.01 0.505 0.532922 1.206 -0.000413487 0.30032 0.888227 1.13835 
0.01 0.51 0.533226 1.206 -0.000124684 0.300551 0.888316 1.13915 
0.01 0.515 0.533024 1.206 -0.000455262 0.300406 0.88827 1.13864 
0.01 0.52 0.532434 1.206 -0.00145537 0.299922 0.888045 1.137 
0.01 0.525 0.532102 1.206 -0.00182362 0.299658 0.887932 1.1361 
0.01 0.53 0.532631 1.206 -0.000792844 0.300068 0.888097 1.13751 
0.01 0.535 0.532998 1.206 0.000204959 0.300401 0.888284 1.13861 
0.01 0.54 0.532969 1.206 0.000232888 0.300372 0.888265 1.13852 
0.01 0.545 0.532674 1.206 -0.000156742 0.30014 0.888168 1.13772 
0.01 0.55 0.532621 1.206 -0.000238418 0.300087 0.888133 1.13755 
0.01 0.555 0.53265 1.206 -0.000200308 0.300099 0.888128 1.1376 
0.01 0.56 0.532609 1.206 -0.000235446 0.300067 0.888114 1.13749 