TITLE=DGSolution
VARIABLES=X Y error
ZONE T=TA, I=201, J=201, DATAPACKING = POINT
0 0 0.00433081 
0 0.005 0.00432622 
0 0.01 0.00433245 
0 0.015 0.00436883 
0 0.02 0.00445804 
0 0.025 0.00460124 
0 0.03 0.00478732 
0 0.035 0.00499394 
0 0.04 0.00520254 
0 0.045 0.00540109 
0 0.05 0.00558657 
0 0.055 0.00575918 
0 0.06 0.00592021 
0 0.065 0.00606982 
0 0.07 0.00620817 
0 0.075 0.00633563 
0 0.08 0.00645319 
0 0.085 0.00656198 
0 0.09 0.00666316 
0 0.095 0.00675768 
0 0.1 0.0068464 
0 0.105 0.00693007 
0 0.11 0.0070094 
0 0.115 0.007085 
0 0.12 0.00715748 
0 0.125 0.00722739 
0 0.13 0.0072952 
0 0.135 0.00736127 
0 0.14 0.00742603 
0 0.145 0.00748999 
0 0.15 0.00755355 
0 0.155 0.00761679 
0 0.16 0.00767985 
0 0.165 0.0077433 
0 0.17 0.00780776 
0 0.175 0.0078743 
0 0.18 0.00794428 
0 0.185 0.00800954 
0 0.19 0.00806725 
0 0.195 0.00813703 
0 0.2 0.00820887 
0 0.205 0.0082406 
0 0.21 0.00894616 
0 0.215 0.017502 
0 0.22 0.0331058 
0 0.225 0.0438514 
0 0.23 0.0497989 
0 0.235 0.0528836 
0 0.24 0.0545051 
0 0.245 0.0556119 
0 0.25 0.0561799 
0 0.255 0.0568278 
0 0.26 0.05865 
0 0.265 0.0674601 
0 0.27 0.0869592 
0 0.275 0.101254 
0 0.28 0.075452 
0 0.285 0.0637339 
0 0.29 0.0652257 
0 0.295 0.0678954 
0 0.3 0.0708116 
0 0.305 0.073547 
0 0.31 0.0763986 
0 0.315 0.0792551 
0 0.32 0.082126 
0 0.325 0.0850255 
0 0.33 0.087956 
0 0.335 0.0909057 
0 0.34 0.0938747 
0 0.345 0.0968657 
0 0.35 0.0998807 
0 0.355 0.10292 
0 0.36 0.105985 
0 0.365 0.109075 
0 0.37 0.112191 
0 0.375 0.115335 
0 0.38 0.118507 
0 0.385 0.121707 
0 0.39 0.124937 
0 0.395 0.128199 
0 0.4 0.131494 
0 0.405 0.134823 
0 0.41 0.138187 
0 0.415 0.141587 
0 0.42 0.145023 
0 0.425 0.148496 
0 0.43 0.152004 
0 0.435 0.155544 
0 0.44 0.159113 
0 0.445 0.16271 
0 0.45 0.166334 
0 0.455 0.169987 
0 0.46 0.173664 
0 0.465 0.17736 
0 0.47 0.181063 
0 0.475 0.184759 
0 0.48 0.188428 
0 0.485 0.19204 
0 0.49 0.195562 
0 0.495 0.198954 
0 0.5 0.202185 
0 0.505 0.205241 
0 0.51 0.208133 
0 0.515 0.210893 
0 0.52 0.213572 
0 0.525 0.216234 
0 0.53 0.218949 
0 0.535 0.221784 
0 0.54 0.224793 
0 0.545 0.227996 
0 0.55 0.231364 
0 0.555 0.234837 
0 0.56 0.238335 
0 0.565 0.241785 
0 0.57 0.245139 
0 0.575 0.248387 
0 0.58 0.251558 
0 0.585 0.254695 
0 0.59 0.257835 
0 0.595 0.261003 
0 0.6 0.264209 
0 0.605 0.267457 
0 0.61 0.270751 
0 0.615 0.274098 
0 0.62 0.277499 
0 0.625 0.280941 
0 0.63 0.284402 
0 0.635 0.287853 
0 0.64 0.291274 
0 0.645 0.294661 
0 0.65 0.298027 
0 0.655 0.301395 
0 0.66 0.304791 
0 0.665 0.308233 
0 0.67 0.311734 
0 0.675 0.315291 
0 0.68 0.318882 
0 0.685 0.322479 
0 0.69 0.326053 
0 0.695 0.329595 
0 0.7 0.333123 
0 0.705 0.336684 
0 0.71 0.340329 
0 0.715 0.344092 
0 0.72 0.347966 
0 0.725 0.351877 
0 0.73 0.355695 
0 0.735 0.359264 
0 0.74 0.362462 
0 0.745 0.365268 
0 0.75 0.367778 
0 0.755 0.37019 
0 0.76 0.372756 
0 0.765 0.37574 
0 0.77 0.379347 
0 0.775 0.383631 
0 0.78 0.388469 
0 0.785 0.393631 
0 0.79 0.398856 
0 0.795 0.403906 
0 0.8 0.408613 
0 0.805 0.412941 
0 0.81 0.416985 
0 0.815 0.420897 
0 0.82 0.42482 
0 0.825 0.428829 
0 0.83 0.432921 
0 0.835 0.43705 
0 0.84 0.441173 
0 0.845 0.445278 
0 0.85 0.449381 
0 0.855 0.453513 
0 0.86 0.457704 
0 0.865 0.461969 
0 0.87 0.46629 
0 0.875 0.470625 
0 0.88 0.474932 
0 0.885 0.479195 
0 0.89 0.483436 
0 0.895 0.487684 
0 0.9 0.491959 
0 0.905 0.496254 
0 0.91 0.500542 
0 0.915 0.504795 
0 0.92 0.508985 
0 0.925 0.513093 
0 0.93 0.51709 
0 0.935 0.520896 
0 0.94 0.524401 
0 0.945 0.527403 
0 0.95 0.529734 
0 0.955 0.531278 
0 0.96 0.532062 
0 0.965 0.532297 
0 0.97 0.532269 
0 0.975 0.532181 
0 0.98 0.532118 
0 0.985 0.532125 
0 0.99 0.532194 
0 0.995 0.532275 
0 1 0.532319 
0.005 0 0.00433081 
0.005 0.005 0.00432622 
0.005 0.01 0.00433245 
0.005 0.015 0.00436883 
0.005 0.02 0.00445804 
0.005 0.025 0.00460124 
0.005 0.03 0.00478732 
0.005 0.035 0.00499394 
0.005 0.04 0.00520254 
0.005 0.045 0.00540109 
0.005 0.05 0.00558657 
0.005 0.055 0.00575918 
0.005 0.06 0.00592021 
0.005 0.065 0.00606982 
0.005 0.07 0.00620817 
0.005 0.075 0.00633563 
0.005 0.08 0.00645319 
0.005 0.085 0.00656198 
0.005 0.09 0.00666316 
0.005 0.095 0.00675768 
0.005 0.1 0.0068464 
0.005 0.105 0.00693007 
0.005 0.11 0.0070094 
0.005 0.115 0.007085 
0.005 0.12 0.00715748 
0.005 0.125 0.00722739 
0.005 0.13 0.0072952 
0.005 0.135 0.00736127 
0.005 0.14 0.00742603 
0.005 0.145 0.00748999 
0.005 0.15 0.00755355 
0.005 0.155 0.00761679 
0.005 0.16 0.00767982 
0.005 0.165 0.0077433 
0.005 0.17 0.00780822 
0.005 0.175 0.00787501 
0.005 0.18 0.00794266 
0.005 0.185 0.00800491 
0.005 0.19 0.00809305 
0.005 0.195 0.00842637 
0.005 0.2 0.0099443 
0.005 0.205 0.0172465 
0.005 0.21 0.0341246 
0.005 0.215 0.0453765 
0.005 0.22 0.0484232 
0.005 0.225 0.050197 
0.005 0.23 0.0518917 
0.005 0.235 0.053503 
0.005 0.24 0.0551347 
0.005 0.245 0.0565675 
0.005 0.25 0.0577746 
0.005 0.255 0.0590294 
0.005 0.26 0.0615091 
0.005 0.265 0.0719582 
0.005 0.27 0.0980537 
0.005 0.275 0.118996 
0.005 0.28 0.0921216 
0.005 0.285 0.06616 
0.005 0.29 0.0655512 
0.005 0.295 0.0678768 
0.005 0.3 0.0707952 
0.005 0.305 0.0735572 
0.005 0.31 0.0763964 
0.005 0.315 0.0792549 
0.005 0.32 0.0821263 
0.005 0.325 0.0850253 
0.005 0.33 0.087956 
0.005 0.335 0.0909057 
0.005 0.34 0.0938747 
0.005 0.345 0.0968657 
0.005 0.35 0.0998807 
0.005 0.355 0.10292 
0.005 0.36 0.105985 
0.005 0.365 0.109075 
0.005 0.37 0.112191 
0.005 0.375 0.115335 
0.005 0.38 0.118507 
0.005 0.385 0.121707 
0.005 0.39 0.124937 
0.005 0.395 0.128199 
0.005 0.4 0.131494 
0.005 0.405 0.134823 
0.005 0.41 0.138187 
0.005 0.415 0.141587 
0.005 0.42 0.145023 
0.005 0.425 0.148496 
0.005 0.43 0.152004 
0.005 0.435 0.155544 
0.005 0.44 0.159113 
0.005 0.445 0.16271 
0.005 0.45 0.166334 
0.005 0.455 0.169987 
0.005 0.46 0.173664 
0.005 0.465 0.17736 
0.005 0.47 0.181063 
0.005 0.475 0.184759 
0.005 0.48 0.188428 
0.005 0.485 0.19204 
0.005 0.49 0.195562 
0.005 0.495 0.198954 
0.005 0.5 0.202185 
0.005 0.505 0.205241 
0.005 0.51 0.208133 
0.005 0.515 0.210893 
0.005 0.52 0.213572 
0.005 0.525 0.216234 
0.005 0.53 0.218949 
0.005 0.535 0.221784 
0.005 0.54 0.224793 
0.005 0.545 0.227996 
0.005 0.55 0.231364 
0.005 0.555 0.234837 
0.005 0.56 0.238335 
0.005 0.565 0.241785 
0.005 0.57 0.245139 
0.005 0.575 0.248387 
0.005 0.58 0.251558 
0.005 0.585 0.254695 
0.005 0.59 0.257835 
0.005 0.595 0.261003 
0.005 0.6 0.264209 
0.005 0.605 0.267457 
0.005 0.61 0.270751 
0.005 0.615 0.274098 
0.005 0.62 0.277499 
0.005 0.625 0.280941 
0.005 0.63 0.284402 
0.005 0.635 0.287853 
0.005 0.64 0.291274 
0.005 0.645 0.294661 
0.005 0.65 0.298027 
0.005 0.655 0.301395 
0.005 0.66 0.304791 
0.005 0.665 0.308233 
0.005 0.67 0.311734 
0.005 0.675 0.315291 
0.005 0.68 0.318882 
0.005 0.685 0.322479 
0.005 0.69 0.326053 
0.005 0.695 0.329595 
0.005 0.7 0.333123 
0.005 0.705 0.336684 
0.005 0.71 0.340329 
0.005 0.715 0.344092 
0.005 0.72 0.347966 
0.005 0.725 0.351877 
0.005 0.73 0.355695 
0.005 0.735 0.359264 
0.005 0.74 0.362462 
0.005 0.745 0.365268 
0.005 0.75 0.367778 
0.005 0.755 0.37019 
0.005 0.76 0.372756 
0.005 0.765 0.37574 
0.005 0.77 0.379347 
0.005 0.775 0.383631 
0.005 0.78 0.388469 
0.005 0.785 0.393631 
0.005 0.79 0.398856 
0.005 0.795 0.403906 
0.005 0.8 0.408613 
0.005 0.805 0.412941 
0.005 0.81 0.416985 
0.005 0.815 0.420897 
0.005 0.82 0.42482 
0.005 0.825 0.428829 
0.005 0.83 0.432921 
0.005 0.835 0.43705 
0.005 0.84 0.441173 
0.005 0.845 0.445278 
0.005 0.85 0.449381 
0.005 0.855 0.453513 
0.005 0.86 0.457704 
0.005 0.865 0.461969 
0.005 0.87 0.46629 
0.005 0.875 0.470625 
0.005 0.88 0.474932 
0.005 0.885 0.479195 
0.005 0.89 0.483436 
0.005 0.895 0.487684 
0.005 0.9 0.491959 
0.005 0.905 0.496254 
0.005 0.91 0.500542 
0.005 0.915 0.504795 
0.005 0.92 0.508985 
0.005 0.925 0.513093 
0.005 0.93 0.51709 
0.005 0.935 0.520896 
0.005 0.94 0.524401 
0.005 0.945 0.527403 
0.005 0.95 0.529734 
0.005 0.955 0.531278 
0.005 0.96 0.532062 
0.005 0.965 0.532297 
0.005 0.97 0.532269 
0.005 0.975 0.532181 
0.005 0.98 0.532118 
0.005 0.985 0.532125 
0.005 0.99 0.532194 
0.005 0.995 0.532275 
0.005 1 0.532319 
0.01 0 0.00433081 
0.01 0.005 0.00432622 
0.01 0.01 0.00433245 
0.01 0.015 0.00436883 
0.01 0.02 0.00445804 
0.01 0.025 0.00460124 
0.01 0.03 0.00478732 
0.01 0.035 0.00499394 
0.01 0.04 0.00520254 
0.01 0.045 0.00540109 
0.01 0.05 0.00558657 
0.01 0.055 0.00575918 
0.01 0.06 0.00592021 
0.01 0.065 0.00606982 
0.01 0.07 0.00620817 
0.01 0.075 0.00633563 
0.01 0.08 0.00645319 
0.01 0.085 0.00656198 
0.01 0.09 0.00666316 
0.01 0.095 0.00675768 
0.01 0.1 0.0068464 
0.01 0.105 0.00693007 
0.01 0.11 0.0070094 
0.01 0.115 0.007085 
0.01 0.12 0.00715748 
0.01 0.125 0.00722739 
0.01 0.13 0.0072952 
0.01 0.135 0.00736127 
0.01 0.14 0.00742603 
0.01 0.145 0.00749 
0.01 0.15 0.00755354 
0.01 0.155 0.00761678 
0.01 0.16 0.00768007 
0.01 0.165 0.00774406 
0.01 0.17 0.0078094 
0.01 0.175 0.00787079 
0.01 0.18 0.0079318 
0.01 0.185 0.00818429 
0.01 0.19 0.00928742 
0.01 0.195 0.0145409 
0.01 0.2 0.0298831 
0.01 0.205 0.0429883 
0.01 0.21 0.0477492 
0.01 0.215 0.0496039 
0.01 0.22 0.0507892 
0.01 0.225 0.0517252 
0.01 0.23 0.0527291 
0.01 0.235 0.0539737 
0.01 0.24 0.0555401 
0.01 0.245 0.0570808 
0.01 0.25 0.058414 
0.01 0.255 0.0600351 
0.01 0.26 0.0627457 
0.01 0.265 0.0695826 
0.01 0.27 0.0908863 
0.01 0.275 0.120229 
0.01 0.28 0.120585 
0.01 0.285 0.0797154 
0.01 0.29 0.0675206 
0.01 0.295 0.0681977 
0.01 0.3 0.0706639 
0.01 0.305 0.0735828 
0.01 0.31 0.076398 
0.01 0.315 0.0792529 
0.01 0.32 0.082126 
0.01 0.325 0.0850261 
0.01 0.33 0.0879556 
0.01 0.335 0.0909058 
0.01 0.34 0.0938747 
0.01 0.345 0.0968657 
0.01 0.35 0.0998807 
0.01 0.355 0.10292 
0.01 0.36 0.105985 
0.01 0.365 0.109075 
0.01 0.37 0.112191 
0.01 0.375 0.115335 
0.01 0.38 0.118507 
0.01 0.385 0.121707 
0.01 0.39 0.124937 
0.01 0.395 0.128199 
0.01 0.4 0.131494 
0.01 0.405 0.134823 
0.01 0.41 0.138187 
0.01 0.415 0.141587 
0.01 0.42 0.145023 
0.01 0.425 0.148496 
0.01 0.43 0.152004 
0.01 0.435 0.155544 
0.01 0.44 0.159113 
0.01 0.445 0.16271 
0.01 0.45 0.166334 
0.01 0.455 0.169987 
0.01 0.46 0.173664 
0.01 0.465 0.17736 
0.01 0.47 0.181063 
0.01 0.475 0.184759 
0.01 0.48 0.188428 
0.01 0.485 0.19204 
0.01 0.49 0.195562 
0.01 0.495 0.198954 
0.01 0.5 0.202185 
0.01 0.505 0.205241 
0.01 0.51 0.208133 
0.01 0.515 0.210893 
0.01 0.52 0.213572 
0.01 0.525 0.216234 
0.01 0.53 0.218949 
0.01 0.535 0.221784 
0.01 0.54 0.224793 
0.01 0.545 0.227996 
0.01 0.55 0.231364 
0.01 0.555 0.234837 
0.01 0.56 0.238335 
0.01 0.565 0.241785 
0.01 0.57 0.245139 
0.01 0.575 0.248387 
0.01 0.58 0.251558 
0.01 0.585 0.254695 
0.01 0.59 0.257835 
0.01 0.595 0.261003 
0.01 0.6 0.264209 
0.01 0.605 0.267457 
0.01 0.61 0.270751 
0.01 0.615 0.274098 
0.01 0.62 0.277499 
0.01 0.625 0.280941 
0.01 0.63 0.284402 
0.01 0.635 0.287853 
0.01 0.64 0.291274 
0.01 0.645 0.294661 
0.01 0.65 0.298027 
0.01 0.655 0.301395 
0.01 0.66 0.304791 
0.01 0.665 0.308233 
0.01 0.67 0.311734 
0.01 0.675 0.315291 
0.01 0.68 0.318882 
0.01 0.685 0.322479 
0.01 0.69 0.326053 
0.01 0.695 0.329595 
0.01 0.7 0.333123 
0.01 0.705 0.336684 
0.01 0.71 0.340329 
0.01 0.715 0.344092 
0.01 0.72 0.347966 
0.01 0.725 0.351877 
0.01 0.73 0.355695 
0.01 0.735 0.359264 
0.01 0.74 0.362462 
0.01 0.745 0.365268 
0.01 0.75 0.367778 
0.01 0.755 0.37019 
0.01 0.76 0.372756 
0.01 0.765 0.37574 
0.01 0.77 0.379347 
0.01 0.775 0.383631 
0.01 0.78 0.388469 
0.01 0.785 0.393631 
0.01 0.79 0.398856 
0.01 0.795 0.403906 
0.01 0.8 0.408613 
0.01 0.805 0.412941 
0.01 0.81 0.416985 
0.01 0.815 0.420897 
0.01 0.82 0.42482 
0.01 0.825 0.428829 
0.01 0.83 0.432921 
0.01 0.835 0.43705 
0.01 0.84 0.441173 
0.01 0.845 0.445278 
0.01 0.85 0.449381 
0.01 0.855 0.453513 
0.01 0.86 0.457704 
0.01 0.865 0.461969 
0.01 0.87 0.46629 
0.01 0.875 0.470625 
0.01 0.88 0.474932 
0.01 0.885 0.479195 
0.01 0.89 0.483436 
0.01 0.895 0.487684 
0.01 0.9 0.491959 
0.01 0.905 0.496254 
0.01 0.91 0.500542 
0.01 0.915 0.504795 
0.01 0.92 0.508985 
0.01 0.925 0.513093 
0.01 0.93 0.51709 
0.01 0.935 0.520896 
0.01 0.94 0.524401 
0.01 0.945 0.527403 
0.01 0.95 0.529734 
0.01 0.955 0.531278 
0.01 0.96 0.532062 
0.01 0.965 0.532297 
0.01 0.97 0.532269 
0.01 0.975 0.532181 
0.01 0.98 0.532118 
0.01 0.985 0.532125 
0.01 0.99 0.532194 
0.01 0.995 0.532275 
0.01 1 0.532319 
0.015 0 0.00433081 
0.015 0.005 0.00432622 
0.015 0.01 0.00433245 
0.015 0.015 0.00436883 
0.015 0.02 0.00445804 
0.015 0.025 0.00460124 
0.015 0.03 0.00478732 
0.015 0.035 0.00499394 
0.015 0.04 0.00520254 
0.015 0.045 0.00540109 
0.015 0.05 0.00558657 
0.015 0.055 0.00575918 
0.015 0.06 0.00592021 
0.015 0.065 0.00606982 
0.015 0.07 0.00620817 
0.015 0.075 0.00633563 
0.015 0.08 0.00645319 
0.015 0.085 0.00656198 
0.015 0.09 0.00666316 
0.015 0.095 0.00675768 
0.015 0.1 0.0068464 
0.015 0.105 0.00693007 
0.015 0.11 0.0070094 
0.015 0.115 0.007085 
0.015 0.12 0.00715748 
0.015 0.125 0.00722739 
0.015 0.13 0.0072952 
0.015 0.135 0.00736127 
0.015 0.14 0.00742603 
0.015 0.145 0.00748997 
0.015 0.15 0.0075536 
0.015 0.155 0.00761732 
0.015 0.16 0.00768137 
0.015 0.165 0.00774096 
0.015 0.17 0.00779279 
0.015 0.175 0.00796271 
0.015 0.18 0.00867182 
0.015 0.185 0.0121938 
0.015 0.19 0.0254484 
0.015 0.195 0.0401393 
0.015 0.2 0.04584 
0.015 0.205 0.048003 
0.015 0.21 0.0492667 
0.015 0.215 0.0501923 
0.015 0.22 0.0510686 
0.015 0.225 0.0519969 
0.015 0.23 0.053086 
0.015 0.235 0.0544305 
0.015 0.24 0.055985 
0.015 0.245 0.0575686 
0.015 0.25 0.0589813 
0.015 0.255 0.060332 
0.015 0.26 0.0622766 
0.015 0.265 0.0663328 
0.015 0.27 0.0799736 
0.015 0.275 0.106317 
0.015 0.28 0.127597 
0.015 0.285 0.114536 
0.015 0.29 0.0776115 
0.015 0.295 0.0696953 
0.015 0.3 0.0708176 
0.015 0.305 0.0734694 
0.015 0.31 0.0764312 
0.015 0.315 0.079249 
0.015 0.32 0.082124 
0.015 0.325 0.0850268 
0.015 0.33 0.0879559 
0.015 0.335 0.0909056 
0.015 0.34 0.0938748 
0.015 0.345 0.0968657 
0.015 0.35 0.0998807 
0.015 0.355 0.10292 
0.015 0.36 0.105985 
0.015 0.365 0.109075 
0.015 0.37 0.112191 
0.015 0.375 0.115335 
0.015 0.38 0.118507 
0.015 0.385 0.121707 
0.015 0.39 0.124937 
0.015 0.395 0.128199 
0.015 0.4 0.131494 
0.015 0.405 0.134823 
0.015 0.41 0.138187 
0.015 0.415 0.141587 
0.015 0.42 0.145023 
0.015 0.425 0.148496 
0.015 0.43 0.152004 
0.015 0.435 0.155544 
0.015 0.44 0.159113 
0.015 0.445 0.16271 
0.015 0.45 0.166334 
0.015 0.455 0.169987 
0.015 0.46 0.173664 
0.015 0.465 0.17736 
0.015 0.47 0.181063 
0.015 0.475 0.184759 
0.015 0.48 0.188428 
0.015 0.485 0.19204 
0.015 0.49 0.195562 
0.015 0.495 0.198954 
0.015 0.5 0.202185 
0.015 0.505 0.205241 
0.015 0.51 0.208133 
0.015 0.515 0.210893 
0.015 0.52 0.213572 
0.015 0.525 0.216234 
0.015 0.53 0.218949 
0.015 0.535 0.221784 
0.015 0.54 0.224793 
0.015 0.545 0.227996 
0.015 0.55 0.231364 
0.015 0.555 0.234837 
0.015 0.56 0.238335 
0.015 0.565 0.241785 
0.015 0.57 0.245139 
0.015 0.575 0.248387 
0.015 0.58 0.251558 
0.015 0.585 0.254695 
0.015 0.59 0.257835 
0.015 0.595 0.261003 
0.015 0.6 0.264209 
0.015 0.605 0.267457 
0.015 0.61 0.270751 
0.015 0.615 0.274098 
0.015 0.62 0.277499 
0.015 0.625 0.280941 
0.015 0.63 0.284402 
0.015 0.635 0.287853 
0.015 0.64 0.291274 
0.015 0.645 0.294661 
0.015 0.65 0.298027 
0.015 0.655 0.301395 
0.015 0.66 0.304791 
0.015 0.665 0.308233 
0.015 0.67 0.311734 
0.015 0.675 0.315291 
0.015 0.68 0.318882 
0.015 0.685 0.322479 
0.015 0.69 0.326053 
0.015 0.695 0.329595 
0.015 0.7 0.333123 
0.015 0.705 0.336684 
0.015 0.71 0.340329 
0.015 0.715 0.344092 
0.015 0.72 0.347966 
0.015 0.725 0.351877 
0.015 0.73 0.355695 
0.015 0.735 0.359264 
0.015 0.74 0.362462 
0.015 0.745 0.365268 
0.015 0.75 0.367778 
0.015 0.755 0.37019 
0.015 0.76 0.372756 
0.015 0.765 0.37574 
0.015 0.77 0.379347 
0.015 0.775 0.383631 
0.015 0.78 0.388469 
0.015 0.785 0.393631 
0.015 0.79 0.398856 
0.015 0.795 0.403906 
0.015 0.8 0.408613 
0.015 0.805 0.412941 
0.015 0.81 0.416985 
0.015 0.815 0.420897 
0.015 0.82 0.42482 
0.015 0.825 0.428829 
0.015 0.83 0.432921 
0.015 0.835 0.43705 
0.015 0.84 0.441173 
0.015 0.845 0.445278 
0.015 0.85 0.449381 
0.015 0.855 0.453513 
0.015 0.86 0.457704 
0.015 0.865 0.461969 
0.015 0.87 0.46629 
0.015 0.875 0.470625 
0.015 0.88 0.474932 
0.015 0.885 0.479195 
0.015 0.89 0.483436 
0.015 0.895 0.487684 
0.015 0.9 0.491959 
0.015 0.905 0.496254 
0.015 0.91 0.500542 
0.015 0.915 0.504795 
0.015 0.92 0.508985 
0.015 0.925 0.513093 
0.015 0.93 0.51709 
0.015 0.935 0.520896 
0.015 0.94 0.524401 
0.015 0.945 0.527403 
0.015 0.95 0.529734 
0.015 0.955 0.531278 
0.015 0.96 0.532062 
0.015 0.965 0.532297 
0.015 0.97 0.532269 
0.015 0.975 0.532181 
0.015 0.98 0.532118 
0.015 0.985 0.532125 
0.015 0.99 0.532194 
0.015 0.995 0.532275 
0.015 1 0.532319 
0.02 0 0.00433081 
0.02 0.005 0.00432622 
0.02 0.01 0.00433245 
0.02 0.015 0.00436883 
0.02 0.02 0.00445804 
0.02 0.025 0.00460124 
0.02 0.03 0.00478732 
0.02 0.035 0.00499394 
0.02 0.04 0.00520254 
0.02 0.045 0.00540109 
0.02 0.05 0.00558657 
0.02 0.055 0.00575918 
0.02 0.06 0.00592021 
0.02 0.065 0.00606982 
0.02 0.07 0.00620817 
0.02 0.075 0.00633563 
0.02 0.08 0.00645319 
0.02 0.085 0.00656198 
0.02 0.09 0.00666316 
0.02 0.095 0.00675768 
0.02 0.1 0.0068464 
0.02 0.105 0.00693007 
0.02 0.11 0.0070094 
0.02 0.115 0.007085 
0.02 0.12 0.00715748 
0.02 0.125 0.0072274 
0.02 0.13 0.00729521 
0.02 0.135 0.00736126 
0.02 0.14 0.00742603 
0.02 0.145 0.00749027 
0.02 0.15 0.00755456 
0.02 0.155 0.00761744 
0.02 0.16 0.00767163 
0.02 0.165 0.00777386 
0.02 0.17 0.00824423 
0.02 0.175 0.0104582 
0.02 0.18 0.0209925 
0.02 0.185 0.0368686 
0.02 0.19 0.0444321 
0.02 0.195 0.0467866 
0.02 0.2 0.0481513 
0.02 0.205 0.0490928 
0.02 0.21 0.0499166 
0.02 0.215 0.0506946 
0.02 0.22 0.051558 
0.02 0.225 0.0526226 
0.02 0.23 0.0539211 
0.02 0.235 0.055405 
0.02 0.24 0.0569664 
0.02 0.245 0.0584679 
0.02 0.25 0.0598003 
0.02 0.255 0.0609644 
0.02 0.26 0.0622136 
0.02 0.265 0.0643493 
0.02 0.27 0.0728771 
0.02 0.275 0.0932643 
0.02 0.28 0.119528 
0.02 0.285 0.13224 
0.02 0.29 0.108818 
0.02 0.295 0.0769904 
0.02 0.3 0.0719317 
0.02 0.305 0.0734989 
0.02 0.31 0.0763416 
0.02 0.315 0.0792827 
0.02 0.32 0.0821173 
0.02 0.325 0.0850258 
0.02 0.33 0.0879565 
0.02 0.335 0.0909056 
0.02 0.34 0.0938746 
0.02 0.345 0.0968657 
0.02 0.35 0.0998807 
0.02 0.355 0.10292 
0.02 0.36 0.105985 
0.02 0.365 0.109075 
0.02 0.37 0.112191 
0.02 0.375 0.115335 
0.02 0.38 0.118507 
0.02 0.385 0.121707 
0.02 0.39 0.124937 
0.02 0.395 0.128199 
0.02 0.4 0.131494 
0.02 0.405 0.134823 
0.02 0.41 0.138187 
0.02 0.415 0.141587 
0.02 0.42 0.145023 
0.02 0.425 0.148496 
0.02 0.43 0.152004 
0.02 0.435 0.155544 
0.02 0.44 0.159113 
0.02 0.445 0.16271 
0.02 0.45 0.166334 
0.02 0.455 0.169987 
0.02 0.46 0.173664 
0.02 0.465 0.17736 
0.02 0.47 0.181063 
0.02 0.475 0.184759 
0.02 0.48 0.188428 
0.02 0.485 0.19204 
0.02 0.49 0.195562 
0.02 0.495 0.198954 
0.02 0.5 0.202185 
0.02 0.505 0.205241 
0.02 0.51 0.208133 
0.02 0.515 0.210893 
0.02 0.52 0.213572 
0.02 0.525 0.216234 
0.02 0.53 0.218949 
0.02 0.535 0.221784 
0.02 0.54 0.224793 
0.02 0.545 0.227996 
0.02 0.55 0.231364 
0.02 0.555 0.234837 
0.02 0.56 0.238335 
0.02 0.565 0.241785 
0.02 0.57 0.245139 
0.02 0.575 0.248387 
0.02 0.58 0.251558 
0.02 0.585 0.254695 
0.02 0.59 0.257835 
0.02 0.595 0.261003 
0.02 0.6 0.264209 
0.02 0.605 0.267457 
0.02 0.61 0.270751 
0.02 0.615 0.274098 
0.02 0.62 0.277499 
0.02 0.625 0.280941 
0.02 0.63 0.284402 
0.02 0.635 0.287853 
0.02 0.64 0.291274 
0.02 0.645 0.294661 
0.02 0.65 0.298027 
0.02 0.655 0.301395 
0.02 0.66 0.304791 
0.02 0.665 0.308233 
0.02 0.67 0.311734 
0.02 0.675 0.315291 
0.02 0.68 0.318882 
0.02 0.685 0.322479 
0.02 0.69 0.326053 
0.02 0.695 0.329595 
0.02 0.7 0.333123 
0.02 0.705 0.336684 
0.02 0.71 0.340329 
0.02 0.715 0.344092 
0.02 0.72 0.347966 
0.02 0.725 0.351877 
0.02 0.73 0.355695 
0.02 0.735 0.359264 
0.02 0.74 0.362462 
0.02 0.745 0.365268 
0.02 0.75 0.367778 
0.02 0.755 0.37019 
0.02 0.76 0.372756 
0.02 0.765 0.37574 
0.02 0.77 0.379347 
0.02 0.775 0.383631 
0.02 0.78 0.388469 
0.02 0.785 0.393631 
0.02 0.79 0.398856 
0.02 0.795 0.403906 
0.02 0.8 0.408613 
0.02 0.805 0.412941 
0.02 0.81 0.416985 
0.02 0.815 0.420897 
0.02 0.82 0.42482 
0.02 0.825 0.428829 
0.02 0.83 0.432921 
0.02 0.835 0.43705 
0.02 0.84 0.441173 
0.02 0.845 0.445278 
0.02 0.85 0.449381 
0.02 0.855 0.453513 
0.02 0.86 0.457704 
0.02 0.865 0.461969 
0.02 0.87 0.46629 
0.02 0.875 0.470625 
0.02 0.88 0.474932 
0.02 0.885 0.479195 
0.02 0.89 0.483436 
0.02 0.895 0.487684 
0.02 0.9 0.491959 
0.02 0.905 0.496254 
0.02 0.91 0.500542 
0.02 0.915 0.504795 
0.02 0.92 0.508985 
0.02 0.925 0.513093 
0.02 0.93 0.51709 
0.02 0.935 0.520896 
0.02 0.94 0.524401 
0.02 0.945 0.527403 
0.02 0.95 0.529734 
0.02 0.955 0.531278 
0.02 0.96 0.532062 
0.02 0.965 0.532297 
0.02 0.97 0.532269 
0.02 0.975 0.532181 
0.02 0.98 0.532118 
0.02 0.985 0.532125 
0.02 0.99 0.532194 
0.02 0.995 0.532275 
0.02 1 0.532319 
0.025 0 0.00433081 
0.025 0.005 0.00432622 
0.025 0.01 0.00433245 
0.025 0.015 0.00436883 
0.025 0.02 0.00445804 
0.025 0.025 0.00460124 
0.025 0.03 0.00478732 
0.025 0.035 0.00499394 
0.025 0.04 0.00520254 
0.025 0.045 0.00540109 
0.025 0.05 0.00558657 
0.025 0.055 0.00575918 
0.025 0.06 0.00592021 
0.025 0.065 0.00606982 
0.025 0.07 0.00620817 
0.025 0.075 0.00633563 
0.025 0.08 0.00645319 
0.025 0.085 0.00656198 
0.025 0.09 0.00666316 
0.025 0.095 0.00675768 
0.025 0.1 0.0068464 
0.025 0.105 0.00693007 
0.025 0.11 0.0070094 
0.025 0.115 0.007085 
0.025 0.12 0.00715748 
0.025 0.125 0.00722739 
0.025 0.13 0.00729519 
0.025 0.135 0.0073614 
0.025 0.14 0.00742685 
0.025 0.145 0.00749142 
0.025 0.15 0.00754958 
0.025 0.155 0.00761194 
0.025 0.16 0.00790026 
0.025 0.165 0.00926819 
0.025 0.17 0.0162115 
0.025 0.175 0.0324282 
0.025 0.18 0.0424861 
0.025 0.185 0.045574 
0.025 0.19 0.0470669 
0.025 0.195 0.048037 
0.025 0.2 0.048838 
0.025 0.205 0.0495681 
0.025 0.21 0.0503048 
0.025 0.215 0.0511637 
0.025 0.22 0.0522081 
0.025 0.225 0.0534495 
0.025 0.23 0.0548514 
0.025 0.235 0.0563366 
0.025 0.24 0.0578136 
0.025 0.245 0.0592051 
0.025 0.25 0.06046 
0.025 0.255 0.061548 
0.025 0.26 0.06248 
0.025 0.265 0.0635515 
0.025 0.27 0.0687477 
0.025 0.275 0.0840435 
0.025 0.28 0.107608 
0.025 0.285 0.129741 
0.025 0.29 0.134884 
0.025 0.295 0.102768 
0.025 0.3 0.0767241 
0.025 0.305 0.0742716 
0.025 0.31 0.0762721 
0.025 0.315 0.0792312 
0.025 0.32 0.0821447 
0.025 0.325 0.085019 
0.025 0.33 0.0879558 
0.025 0.335 0.0909066 
0.025 0.34 0.0938744 
0.025 0.345 0.0968656 
0.025 0.35 0.0998807 
0.025 0.355 0.10292 
0.025 0.36 0.105985 
0.025 0.365 0.109075 
0.025 0.37 0.112191 
0.025 0.375 0.115335 
0.025 0.38 0.118507 
0.025 0.385 0.121707 
0.025 0.39 0.124937 
0.025 0.395 0.128199 
0.025 0.4 0.131494 
0.025 0.405 0.134823 
0.025 0.41 0.138187 
0.025 0.415 0.141587 
0.025 0.42 0.145023 
0.025 0.425 0.148496 
0.025 0.43 0.152004 
0.025 0.435 0.155544 
0.025 0.44 0.159113 
0.025 0.445 0.16271 
0.025 0.45 0.166334 
0.025 0.455 0.169987 
0.025 0.46 0.173664 
0.025 0.465 0.17736 
0.025 0.47 0.181063 
0.025 0.475 0.184759 
0.025 0.48 0.188428 
0.025 0.485 0.19204 
0.025 0.49 0.195562 
0.025 0.495 0.198954 
0.025 0.5 0.202185 
0.025 0.505 0.205241 
0.025 0.51 0.208133 
0.025 0.515 0.210893 
0.025 0.52 0.213572 
0.025 0.525 0.216234 
0.025 0.53 0.218949 
0.025 0.535 0.221784 
0.025 0.54 0.224793 
0.025 0.545 0.227996 
0.025 0.55 0.231364 
0.025 0.555 0.234837 
0.025 0.56 0.238335 
0.025 0.565 0.241785 
0.025 0.57 0.245139 
0.025 0.575 0.248387 
0.025 0.58 0.251558 
0.025 0.585 0.254695 
0.025 0.59 0.257835 
0.025 0.595 0.261003 
0.025 0.6 0.264209 
0.025 0.605 0.267457 
0.025 0.61 0.270751 
0.025 0.615 0.274098 
0.025 0.62 0.277499 
0.025 0.625 0.280941 
0.025 0.63 0.284402 
0.025 0.635 0.287853 
0.025 0.64 0.291274 
0.025 0.645 0.294661 
0.025 0.65 0.298027 
0.025 0.655 0.301395 
0.025 0.66 0.304791 
0.025 0.665 0.308233 
0.025 0.67 0.311734 
0.025 0.675 0.315291 
0.025 0.68 0.318882 
0.025 0.685 0.322479 
0.025 0.69 0.326053 
0.025 0.695 0.329595 
0.025 0.7 0.333123 
0.025 0.705 0.336684 
0.025 0.71 0.340329 
0.025 0.715 0.344092 
0.025 0.72 0.347966 
0.025 0.725 0.351877 
0.025 0.73 0.355695 
0.025 0.735 0.359264 
0.025 0.74 0.362462 
0.025 0.745 0.365268 
0.025 0.75 0.367778 
0.025 0.755 0.37019 
0.025 0.76 0.372756 
0.025 0.765 0.37574 
0.025 0.77 0.379347 
0.025 0.775 0.383631 
0.025 0.78 0.388469 
0.025 0.785 0.393631 
0.025 0.79 0.398856 
0.025 0.795 0.403906 
0.025 0.8 0.408613 
0.025 0.805 0.412941 
0.025 0.81 0.416985 
0.025 0.815 0.420897 
0.025 0.82 0.42482 
0.025 0.825 0.428829 
0.025 0.83 0.432921 
0.025 0.835 0.43705 
0.025 0.84 0.441173 
0.025 0.845 0.445278 
0.025 0.85 0.449381 
0.025 0.855 0.453513 
0.025 0.86 0.457704 
0.025 0.865 0.461969 
0.025 0.87 0.46629 
0.025 0.875 0.470625 
0.025 0.88 0.474932 
0.025 0.885 0.479195 
0.025 0.89 0.483436 
0.025 0.895 0.487684 
0.025 0.9 0.491959 
0.025 0.905 0.496254 
0.025 0.91 0.500542 
0.025 0.915 0.504795 
0.025 0.92 0.508985 
0.025 0.925 0.513093 
0.025 0.93 0.51709 
0.025 0.935 0.520896 
0.025 0.94 0.524401 
0.025 0.945 0.527403 
0.025 0.95 0.529734 
0.025 0.955 0.531278 
0.025 0.96 0.532062 
0.025 0.965 0.532297 
0.025 0.97 0.532269 
0.025 0.975 0.532181 
0.025 0.98 0.532118 
0.025 0.985 0.532125 
0.025 0.99 0.532194 
0.025 0.995 0.532275 
0.025 1 0.532319 
0.03 0 0.00433081 
0.03 0.005 0.00432622 
0.03 0.01 0.00433245 
0.03 0.015 0.00436883 
0.03 0.02 0.00445804 
0.03 0.025 0.00460124 
0.03 0.03 0.00478732 
0.03 0.035 0.00499394 
0.03 0.04 0.00520254 
0.03 0.045 0.00540109 
0.03 0.05 0.00558657 
0.03 0.055 0.00575918 
0.03 0.06 0.00592021 
0.03 0.065 0.00606982 
0.03 0.07 0.00620817 
0.03 0.075 0.00633563 
0.03 0.08 0.00645319 
0.03 0.085 0.00656198 
0.03 0.09 0.00666316 
0.03 0.095 0.00675768 
0.03 0.1 0.0068464 
0.03 0.105 0.00693007 
0.03 0.11 0.0070094 
0.03 0.115 0.007085 
0.03 0.12 0.00715747 
0.03 0.125 0.00722739 
0.03 0.13 0.00729537 
0.03 0.135 0.00736244 
0.03 0.14 0.00742384 
0.03 0.145 0.0074741 
0.03 0.15 0.00764188 
0.03 0.155 0.00841861 
0.03 0.16 0.0125225 
0.03 0.165 0.0269964 
0.03 0.17 0.0401375 
0.03 0.175 0.0443616 
0.03 0.18 0.046033 
0.03 0.185 0.0470197 
0.03 0.19 0.0477976 
0.03 0.195 0.0485003 
0.03 0.2 0.0491861 
0.03 0.205 0.049934 
0.03 0.21 0.050795 
0.03 0.215 0.0518033 
0.03 0.22 0.0529817 
0.03 0.225 0.0543211 
0.03 0.23 0.0557667 
0.03 0.235 0.0572368 
0.03 0.24 0.0586606 
0.03 0.245 0.0599921 
0.03 0.25 0.0611994 
0.03 0.255 0.0622418 
0.03 0.26 0.0630949 
0.03 0.265 0.0638203 
0.03 0.27 0.0666542 
0.03 0.275 0.0768137 
0.03 0.28 0.0972802 
0.03 0.285 0.120472 
0.03 0.29 0.137519 
0.03 0.295 0.135606 
0.03 0.3 0.0955317 
0.03 0.305 0.0772393 
0.03 0.31 0.0767832 
0.03 0.315 0.0791058 
0.03 0.32 0.0821342 
0.03 0.325 0.0850357 
0.03 0.33 0.0879498 
0.03 0.335 0.0909061 
0.03 0.34 0.0938755 
0.03 0.345 0.0968653 
0.03 0.35 0.0998807 
0.03 0.355 0.10292 
0.03 0.36 0.105985 
0.03 0.365 0.109075 
0.03 0.37 0.112191 
0.03 0.375 0.115335 
0.03 0.38 0.118507 
0.03 0.385 0.121707 
0.03 0.39 0.124937 
0.03 0.395 0.128199 
0.03 0.4 0.131494 
0.03 0.405 0.134823 
0.03 0.41 0.138187 
0.03 0.415 0.141587 
0.03 0.42 0.145023 
0.03 0.425 0.148496 
0.03 0.43 0.152004 
0.03 0.435 0.155544 
0.03 0.44 0.159113 
0.03 0.445 0.16271 
0.03 0.45 0.166334 
0.03 0.455 0.169987 
0.03 0.46 0.173664 
0.03 0.465 0.17736 
0.03 0.47 0.181063 
0.03 0.475 0.184759 
0.03 0.48 0.188428 
0.03 0.485 0.19204 
0.03 0.49 0.195562 
0.03 0.495 0.198954 
0.03 0.5 0.202185 
0.03 0.505 0.205241 
0.03 0.51 0.208133 
0.03 0.515 0.210893 
0.03 0.52 0.213572 
0.03 0.525 0.216234 
0.03 0.53 0.218949 
0.03 0.535 0.221784 
0.03 0.54 0.224793 
0.03 0.545 0.227996 
0.03 0.55 0.231364 
0.03 0.555 0.234837 
0.03 0.56 0.238335 
0.03 0.565 0.241785 
0.03 0.57 0.245139 
0.03 0.575 0.248387 
0.03 0.58 0.251558 
0.03 0.585 0.254695 
0.03 0.59 0.257835 
0.03 0.595 0.261003 
0.03 0.6 0.264209 
0.03 0.605 0.267457 
0.03 0.61 0.270751 
0.03 0.615 0.274098 
0.03 0.62 0.277499 
0.03 0.625 0.280941 
0.03 0.63 0.284402 
0.03 0.635 0.287853 
0.03 0.64 0.291274 
0.03 0.645 0.294661 
0.03 0.65 0.298027 
0.03 0.655 0.301395 
0.03 0.66 0.304791 
0.03 0.665 0.308233 
0.03 0.67 0.311734 
0.03 0.675 0.315291 
0.03 0.68 0.318882 
0.03 0.685 0.322479 
0.03 0.69 0.326053 
0.03 0.695 0.329595 
0.03 0.7 0.333123 
0.03 0.705 0.336684 
0.03 0.71 0.340329 
0.03 0.715 0.344092 
0.03 0.72 0.347966 
0.03 0.725 0.351877 
0.03 0.73 0.355695 
0.03 0.735 0.359264 
0.03 0.74 0.362462 
0.03 0.745 0.365268 
0.03 0.75 0.367778 
0.03 0.755 0.37019 
0.03 0.76 0.372756 
0.03 0.765 0.37574 
0.03 0.77 0.379347 
0.03 0.775 0.383631 
0.03 0.78 0.388469 
0.03 0.785 0.393631 
0.03 0.79 0.398856 
0.03 0.795 0.403906 
0.03 0.8 0.408613 
0.03 0.805 0.412941 
0.03 0.81 0.416985 
0.03 0.815 0.420897 
0.03 0.82 0.42482 
0.03 0.825 0.428829 
0.03 0.83 0.432921 
0.03 0.835 0.43705 
0.03 0.84 0.441173 
0.03 0.845 0.445278 
0.03 0.85 0.449381 
0.03 0.855 0.453513 
0.03 0.86 0.457704 
0.03 0.865 0.461969 
0.03 0.87 0.46629 
0.03 0.875 0.470625 
0.03 0.88 0.474932 
0.03 0.885 0.479195 
0.03 0.89 0.483436 
0.03 0.895 0.487684 
0.03 0.9 0.491959 
0.03 0.905 0.496254 
0.03 0.91 0.500542 
0.03 0.915 0.504795 
0.03 0.92 0.508985 
0.03 0.925 0.513093 
0.03 0.93 0.51709 
0.03 0.935 0.520896 
0.03 0.94 0.524401 
0.03 0.945 0.527403 
0.03 0.95 0.529734 
0.03 0.955 0.531278 
0.03 0.96 0.532062 
0.03 0.965 0.532297 
0.03 0.97 0.532269 
0.03 0.975 0.532181 
0.03 0.98 0.532118 
0.03 0.985 0.532125 
0.03 0.99 0.532194 
0.03 0.995 0.532275 
0.03 1 0.532319 
0.035 0 0.00433081 
0.035 0.005 0.00432622 
0.035 0.01 0.00433245 
0.035 0.015 0.00436883 
0.035 0.02 0.00445804 
0.035 0.025 0.00460124 
0.035 0.03 0.00478732 
0.035 0.035 0.00499394 
0.035 0.04 0.00520254 
0.035 0.045 0.00540109 
0.035 0.05 0.00558657 
0.035 0.055 0.00575918 
0.035 0.06 0.00592021 
0.035 0.065 0.00606982 
0.035 0.07 0.00620817 
0.035 0.075 0.00633563 
0.035 0.08 0.00645319 
0.035 0.085 0.00656198 
0.035 0.09 0.00666316 
0.035 0.095 0.00675768 
0.035 0.1 0.0068464 
0.035 0.105 0.00693007 
0.035 0.11 0.0070094 
0.035 0.115 0.00708499 
0.035 0.12 0.00715764 