TITLE=DGSolution
VARIABLES=X Y error
ZONE T=TA, I=81, J=81, DATAPACKING = POINT
0 0 1.04371e-06 
0 0.025 1.20984e-06 
0 0.05 1.36842e-06 
0 0.075 1.52157e-06 
0 0.1 1.67104e-06 
0 0.125 1.81825e-06 
0 0.15 1.96343e-06 
0 0.175 2.1048e-06 
0 0.2 2.23888e-06 
0 0.225 2.36276e-06 
0 0.25 2.47781e-06 
0 0.275 2.59209e-06 
0 0.3 2.7182e-06 
0 0.325 2.86428e-06 
0 0.35 3.0211e-06 
0 0.375 3.15293e-06 
0 0.4 3.20265e-06 
0 0.425 3.11852e-06 
0 0.45 2.89816e-06 
0 0.475 2.62408e-06 
0 0.5 2.4531e-06 
0 0.525 2.5113e-06 
0 0.55 2.74105e-06 
0 0.575 2.98446e-06 
0 0.6 3.12611e-06 
0 0.625 3.13419e-06 
0 0.65 3.03841e-06 
0 0.675 2.89012e-06 
0 0.7 2.73192e-06 
0 0.725 2.58528e-06 
0 0.75 2.45293e-06 
0 0.775 2.32783e-06 
0 0.8 2.20176e-06 
0 0.825 2.07e-06 
0 0.85 1.93185e-06 
0 0.875 1.78882e-06 
0 0.9 1.64249e-06 
0 0.925 1.49337e-06 
0 0.95 1.34076e-06 
0 0.975 1.18324e-06 
0 1 1.01898e-06 
0 1.025 8.4514e-07 
0 1.05 6.56863e-07 
0 1.075 4.46635e-07 
0 1.1 2.05294e-07 
0 1.125 7.49779e-08 
0 1.15 3.97111e-07 
0 1.175 7.58013e-07 
0 1.2 1.15252e-06 
0 1.225 1.58207e-06 
0 1.25 2.06291e-06 
0 1.275 2.62501e-06 
0 1.3 3.29455e-06 
0 1.325 4.06125e-06 
0 1.35 4.84494e-06 
0 1.375 5.48732e-06 
0 1.4 5.7936e-06 
0 1.425 5.63172e-06 
0 1.45 5.05835e-06 
0 1.475 4.38463e-06 
0 1.5 4.06467e-06 
0 1.525 4.35504e-06 
0 1.55 5.00481e-06 
0 1.575 5.55566e-06 
0 1.6 5.71145e-06 
0 1.625 5.4234e-06 
0 1.65 4.81334e-06 
0 1.675 4.05769e-06 
0 1.7 3.3017e-06 
0 1.725 2.62459e-06 
0 1.75 2.0458e-06 
0 1.775 1.55075e-06 
0 1.8 1.11646e-06 
0 1.825 7.26527e-07 
0 1.85 3.74436e-07 
0 1.875 5.96296e-08 
0 1.9 2.17885e-07 
0 1.925 4.60806e-07 
0 1.95 6.74818e-07 
0 1.975 8.66964e-07 
0 2 1.04371e-06 
0.025 0 1.20984e-06 
0.025 0.025 1.36842e-06 
0.025 0.05 1.52157e-06 
0.025 0.075 1.67104e-06 
0.025 0.1 1.81825e-06 
0.025 0.125 1.96343e-06 
0.025 0.15 2.1048e-06 
0.025 0.175 2.23888e-06 
0.025 0.2 2.36276e-06 
0.025 0.225 2.47781e-06 
0.025 0.25 2.59209e-06 
0.025 0.275 2.7182e-06 
0.025 0.3 2.86428e-06 
0.025 0.325 3.0211e-06 
0.025 0.35 3.15293e-06 
0.025 0.375 3.20265e-06 
0.025 0.4 3.11852e-06 
0.025 0.425 2.89816e-06 
0.025 0.45 2.62408e-06 
0.025 0.475 2.4531e-06 
0.025 0.5 2.5113e-06 
0.025 0.525 2.74105e-06 
0.025 0.55 2.98446e-06 
0.025 0.575 3.12611e-06 
0.025 0.6 3.13419e-06 
0.025 0.625 3.03841e-06 
0.025 0.65 2.89012e-06 
0.025 0.675 2.73192e-06 
0.025 0.7 2.58528e-06 
0.025 0.725 2.45293e-06 
0.025 0.75 2.32783e-06 
0.025 0.775 2.20176e-06 
0.025 0.8 2.07e-06 
0.025 0.825 1.93185e-06 
0.025 0.85 1.78882e-06 
0.025 0.875 1.64249e-06 
0.025 0.9 1.49337e-06 
0.025 0.925 1.34076e-06 
0.025 0.95 1.18324e-06 
0.025 0.975 1.01898e-06 
0.025 1 8.4514e-07 
0.025 1.025 6.56863e-07 
0.025 1.05 4.46635e-07 
0.025 1.075 2.05294e-07 
0.025 1.1 7.49779e-08 
0.025 1.125 3.97111e-07 
0.025 1.15 7.58013e-07 
0.025 1.175 1.15252e-06 
0.025 1.2 1.58207e-06 
0.025 1.225 2.06291e-06 
0.025 1.25 2.62501e-06 
0.025 1.275 3.29455e-06 
0.025 1.3 4.06125e-06 
0.025 1.325 4.84494e-06 
0.025 1.35 5.48732e-06 
0.025 1.375 5.7936e-06 
0.025 1.4 5.63172e-06 
0.025 1.425 5.05835e-06 
0.025 1.45 4.38463e-06 
0.025 1.475 4.06467e-06 
0.025 1.5 4.35504e-06 
0.025 1.525 5.00481e-06 
0.025 1.55 5.55566e-06 
0.025 1.575 5.71145e-06 
0.025 1.6 5.4234e-06 
0.025 1.625 4.81334e-06 
0.025 1.65 4.05769e-06 
0.025 1.675 3.3017e-06 
0.025 1.7 2.62459e-06 
0.025 1.725 2.0458e-06 
0.025 1.75 1.55075e-06 
0.025 1.775 1.11646e-06 
0.025 1.8 7.26527e-07 
0.025 1.825 3.74436e-07 
0.025 1.85 5.96296e-08 
0.025 1.875 2.17885e-07 
0.025 1.9 4.60806e-07 
0.025 1.925 6.74818e-07 
0.025 1.95 8.66964e-07 
0.025 1.975 1.04371e-06 
0.025 2 1.20984e-06 
0.05 0 1.36842e-06 
0.05 0.025 1.52157e-06 
0.05 0.05 1.67104e-06 
0.05 0.075 1.81825e-06 
0.05 0.1 1.96343e-06 
0.05 0.125 2.1048e-06 
0.05 0.15 2.23888e-06 
0.05 0.175 2.36276e-06 
0.05 0.2 2.47781e-06 
0.05 0.225 2.59209e-06 
0.05 0.25 2.7182e-06 
0.05 0.275 2.86428e-06 
0.05 0.3 3.0211e-06 
0.05 0.325 3.15293e-06 
0.05 0.35 3.20265e-06 
0.05 0.375 3.11852e-06 
0.05 0.4 2.89816e-06 
0.05 0.425 2.62408e-06 
0.05 0.45 2.4531e-06 
0.05 0.475 2.5113e-06 
0.05 0.5 2.74105e-06 
0.05 0.525 2.98446e-06 
0.05 0.55 3.12611e-06 
0.05 0.575 3.13419e-06 
0.05 0.6 3.03841e-06 
0.05 0.625 2.89012e-06 
0.05 0.65 2.73192e-06 
0.05 0.675 2.58528e-06 
0.05 0.7 2.45293e-06 
0.05 0.725 2.32783e-06 
0.05 0.75 2.20176e-06 
0.05 0.775 2.07e-06 
0.05 0.8 1.93185e-06 
0.05 0.825 1.78882e-06 
0.05 0.85 1.64249e-06 
0.05 0.875 1.49337e-06 
0.05 0.9 1.34076e-06 
0.05 0.925 1.18324e-06 
0.05 0.95 1.01898e-06 
0.05 0.975 8.4514e-07 
0.05 1 6.56863e-07 
0.05 1.025 4.46635e-07 
0.05 1.05 2.05294e-07 
0.05 1.075 7.49779e-08 
0.05 1.1 3.97111e-07 
0.05 1.125 7.58013e-07 
0.05 1.15 1.15252e-06 
0.05 1.175 1.58207e-06 
0.05 1.2 2.06291e-06 
0.05 1.225 2.62501e-06 
0.05 1.25 3.29455e-06 
0.05 1.275 4.06125e-06 
0.05 1.3 4.84494e-06 
0.05 1.325 5.48732e-06 
0.05 1.35 5.7936e-06 
0.05 1.375 5.63172e-06 
0.05 1.4 5.05835e-06 
0.05 1.425 4.38463e-06 
0.05 1.45 4.06467e-06 
0.05 1.475 4.35504e-06 
0.05 1.5 5.00481e-06 
0.05 1.525 5.55566e-06 
0.05 1.55 5.71145e-06 
0.05 1.575 5.4234e-06 
0.05 1.6 4.81334e-06 
0.05 1.625 4.05769e-06 
0.05 1.65 3.3017e-06 
0.05 1.675 2.62459e-06 
0.05 1.7 2.0458e-06 
0.05 1.725 1.55075e-06 
0.05 1.75 1.11646e-06 
0.05 1.775 7.26527e-07 
0.05 1.8 3.74436e-07 
0.05 1.825 5.96296e-08 
0.05 1.85 2.17885e-07 
0.05 1.875 4.60806e-07 
0.05 1.9 6.74818e-07 
0.05 1.925 8.66964e-07 
0.05 1.95 1.04371e-06 
0.05 1.975 1.20984e-06 
0.05 2 1.36842e-06 
0.075 0 1.52157e-06 
0.075 0.025 1.67104e-06 
0.075 0.05 1.81825e-06 
0.075 0.075 1.96343e-06 
0.075 0.1 2.1048e-06 
0.075 0.125 2.23888e-06 
0.075 0.15 2.36276e-06 
0.075 0.175 2.47781e-06 
0.075 0.2 2.59209e-06 
0.075 0.225 2.7182e-06 
0.075 0.25 2.86428e-06 
0.075 0.275 3.0211e-06 
0.075 0.3 3.15293e-06 
0.075 0.325 3.20265e-06 
0.075 0.35 3.11852e-06 
0.075 0.375 2.89816e-06 
0.075 0.4 2.62408e-06 
0.075 0.425 2.4531e-06 
0.075 0.45 2.5113e-06 
0.075 0.475 2.74105e-06 
0.075 0.5 2.98446e-06 
0.075 0.525 3.12611e-06 
0.075 0.55 3.13419e-06 
0.075 0.575 3.03841e-06 
0.075 0.6 2.89012e-06 
0.075 0.625 2.73192e-06 
0.075 0.65 2.58528e-06 
0.075 0.675 2.45293e-06 
0.075 0.7 2.32783e-06 
0.075 0.725 2.20176e-06 
0.075 0.75 2.07e-06 
0.075 0.775 1.93185e-06 
0.075 0.8 1.78882e-06 
0.075 0.825 1.64249e-06 
0.075 0.85 1.49337e-06 
0.075 0.875 1.34076e-06 
0.075 0.9 1.18324e-06 
0.075 0.925 1.01898e-06 
0.075 0.95 8.4514e-07 
0.075 0.975 6.56863e-07 
0.075 1 4.46635e-07 
0.075 1.025 2.05294e-07 
0.075 1.05 7.49779e-08 
0.075 1.075 3.97111e-07 
0.075 1.1 7.58013e-07 
0.075 1.125 1.15252e-06 
0.075 1.15 1.58207e-06 
0.075 1.175 2.06291e-06 
0.075 1.2 2.62501e-06 
0.075 1.225 3.29455e-06 
0.075 1.25 4.06125e-06 
0.075 1.275 4.84494e-06 
0.075 1.3 5.48732e-06 
0.075 1.325 5.7936e-06 
0.075 1.35 5.63172e-06 
0.075 1.375 5.05835e-06 
0.075 1.4 4.38463e-06 
0.075 1.425 4.06467e-06 
0.075 1.45 4.35504e-06 
0.075 1.475 5.00481e-06 
0.075 1.5 5.55566e-06 
0.075 1.525 5.71145e-06 
0.075 1.55 5.4234e-06 
0.075 1.575 4.81334e-06 
0.075 1.6 4.05769e-06 
0.075 1.625 3.3017e-06 
0.075 1.65 2.62459e-06 
0.075 1.675 2.0458e-06 
0.075 1.7 1.55075e-06 
0.075 1.725 1.11646e-06 
0.075 1.75 7.26527e-07 
0.075 1.775 3.74436e-07 
0.075 1.8 5.96296e-08 
0.075 1.825 2.17885e-07 
0.075 1.85 4.60806e-07 
0.075 1.875 6.74818e-07 
0.075 1.9 8.66964e-07 
0.075 1.925 1.04371e-06 
0.075 1.95 1.20984e-06 
0.075 1.975 1.36842e-06 
0.075 2 1.52157e-06 
0.1 0 1.67104e-06 
0.1 0.025 1.81825e-06 
0.1 0.05 1.96343e-06 
0.1 0.075 2.1048e-06 
0.1 0.1 2.23888e-06 
0.1 0.125 2.36276e-06 
0.1 0.15 2.47781e-06 
0.1 0.175 2.59209e-06 
0.1 0.2 2.7182e-06 
0.1 0.225 2.86428e-06 
0.1 0.25 3.0211e-06 
0.1 0.275 3.15293e-06 
0.1 0.3 3.20265e-06 
0.1 0.325 3.11852e-06 
0.1 0.35 2.89816e-06 
0.1 0.375 2.62408e-06 
0.1 0.4 2.4531e-06 
0.1 0.425 2.5113e-06 
0.1 0.45 2.74105e-06 
0.1 0.475 2.98446e-06 
0.1 0.5 3.12611e-06 
0.1 0.525 3.13419e-06 
0.1 0.55 3.03841e-06 
0.1 0.575 2.89012e-06 
0.1 0.6 2.73192e-06 
0.1 0.625 2.58528e-06 
0.1 0.65 2.45293e-06 
0.1 0.675 2.32783e-06 
0.1 0.7 2.20176e-06 
0.1 0.725 2.07e-06 
0.1 0.75 1.93185e-06 
0.1 0.775 1.78882e-06 
0.1 0.8 1.64249e-06 
0.1 0.825 1.49337e-06 
0.1 0.85 1.34076e-06 
0.1 0.875 1.18324e-06 
0.1 0.9 1.01898e-06 
0.1 0.925 8.4514e-07 
0.1 0.95 6.56863e-07 
0.1 0.975 4.46635e-07 
0.1 1 2.05294e-07 
0.1 1.025 7.49779e-08 
0.1 1.05 3.97111e-07 
0.1 1.075 7.58013e-07 
0.1 1.1 1.15252e-06 
0.1 1.125 1.58207e-06 
0.1 1.15 2.06291e-06 
0.1 1.175 2.62501e-06 
0.1 1.2 3.29455e-06 
0.1 1.225 4.06125e-06 
0.1 1.25 4.84494e-06 
0.1 1.275 5.48732e-06 
0.1 1.3 5.7936e-06 
0.1 1.325 5.63172e-06 
0.1 1.35 5.05835e-06 
0.1 1.375 4.38463e-06 
0.1 1.4 4.06467e-06 
0.1 1.425 4.35504e-06 
0.1 1.45 5.00481e-06 
0.1 1.475 5.55566e-06 
0.1 1.5 5.71145e-06 
0.1 1.525 5.4234e-06 
0.1 1.55 4.81334e-06 
0.1 1.575 4.05769e-06 
0.1 1.6 3.3017e-06 
0.1 1.625 2.62459e-06 
0.1 1.65 2.0458e-06 
0.1 1.675 1.55075e-06 
0.1 1.7 1.11646e-06 
0.1 1.725 7.26527e-07 
0.1 1.75 3.74436e-07 
0.1 1.775 5.96296e-08 
0.1 1.8 2.17885e-07 
0.1 1.825 4.60806e-07 
0.1 1.85 6.74818e-07 
0.1 1.875 8.66964e-07 
0.1 1.9 1.04371e-06 
0.1 1.925 1.20984e-06 
0.1 1.95 1.36842e-06 
0.1 1.975 1.52157e-06 
0.1 2 1.67104e-06 
0.125 0 1.81825e-06 
0.125 0.025 1.96343e-06 
0.125 0.05 2.1048e-06 
0.125 0.075 2.23888e-06 
0.125 0.1 2.36276e-06 
0.125 0.125 2.47781e-06 
0.125 0.15 2.59209e-06 
0.125 0.175 2.7182e-06 
0.125 0.2 2.86428e-06 
0.125 0.225 3.0211e-06 
0.125 0.25 3.15293e-06 
0.125 0.275 3.20265e-06 
0.125 0.3 3.11852e-06 
0.125 0.325 2.89816e-06 
0.125 0.35 2.62408e-06 
0.125 0.375 2.4531e-06 
0.125 0.4 2.5113e-06 
0.125 0.425 2.74105e-06 
0.125 0.45 2.98446e-06 
0.125 0.475 3.12611e-06 
0.125 0.5 3.13419e-06 
0.125 0.525 3.03841e-06 
0.125 0.55 2.89012e-06 
0.125 0.575 2.73192e-06 
0.125 0.6 2.58528e-06 
0.125 0.625 2.45293e-06 
0.125 0.65 2.32783e-06 
0.125 0.675 2.20176e-06 
0.125 0.7 2.07e-06 
0.125 0.725 1.93185e-06 
0.125 0.75 1.78882e-06 
0.125 0.775 1.64249e-06 
0.125 0.8 1.49337e-06 
0.125 0.825 1.34076e-06 
0.125 0.85 1.18324e-06 
0.125 0.875 1.01898e-06 
0.125 0.9 8.4514e-07 
0.125 0.925 6.56863e-07 
0.125 0.95 4.46635e-07 
0.125 0.975 2.05294e-07 
0.125 1 7.49779e-08 
0.125 1.025 3.97111e-07 
0.125 1.05 7.58013e-07 
0.125 1.075 1.15252e-06 
0.125 1.1 1.58207e-06 
0.125 1.125 2.06291e-06 
0.125 1.15 2.62501e-06 
0.125 1.175 3.29455e-06 
0.125 1.2 4.06125e-06 
0.125 1.225 4.84494e-06 
0.125 1.25 5.48732e-06 
0.125 1.275 5.7936e-06 
0.125 1.3 5.63172e-06 
0.125 1.325 5.05835e-06 
0.125 1.35 4.38463e-06 
0.125 1.375 4.06467e-06 
0.125 1.4 4.35504e-06 
0.125 1.425 5.00481e-06 
0.125 1.45 5.55566e-06 
0.125 1.475 5.71145e-06 
0.125 1.5 5.4234e-06 
0.125 1.525 4.81334e-06 
0.125 1.55 4.05769e-06 
0.125 1.575 3.3017e-06 
0.125 1.6 2.62459e-06 
0.125 1.625 2.0458e-06 
0.125 1.65 1.55075e-06 
0.125 1.675 1.11646e-06 
0.125 1.7 7.26527e-07 
0.125 1.725 3.74436e-07 
0.125 1.75 5.96296e-08 
0.125 1.775 2.17885e-07 
0.125 1.8 4.60806e-07 
0.125 1.825 6.74818e-07 
0.125 1.85 8.66964e-07 
0.125 1.875 1.04371e-06 
0.125 1.9 1.20984e-06 
0.125 1.925 1.36842e-06 
0.125 1.95 1.52157e-06 
0.125 1.975 1.67104e-06 
0.125 2 1.81825e-06 
0.15 0 1.96343e-06 
0.15 0.025 2.1048e-06 
0.15 0.05 2.23888e-06 
0.15 0.075 2.36276e-06 
0.15 0.1 2.47781e-06 
0.15 0.125 2.59209e-06 
0.15 0.15 2.7182e-06 
0.15 0.175 2.86428e-06 
0.15 0.2 3.0211e-06 
0.15 0.225 3.15293e-06 
0.15 0.25 3.20265e-06 
0.15 0.275 3.11852e-06 
0.15 0.3 2.89816e-06 
0.15 0.325 2.62408e-06 
0.15 0.35 2.4531e-06 
0.15 0.375 2.5113e-06 
0.15 0.4 2.74105e-06 
0.15 0.425 2.98446e-06 
0.15 0.45 3.12611e-06 
0.15 0.475 3.13419e-06 
0.15 0.5 3.03841e-06 
0.15 0.525 2.89012e-06 
0.15 0.55 2.73192e-06 
0.15 0.575 2.58528e-06 
0.15 0.6 2.45293e-06 
0.15 0.625 2.32783e-06 
0.15 0.65 2.20176e-06 
0.15 0.675 2.07e-06 
0.15 0.7 1.93185e-06 
0.15 0.725 1.78882e-06 
0.15 0.75 1.64249e-06 
0.15 0.775 1.49337e-06 
0.15 0.8 1.34076e-06 
0.15 0.825 1.18324e-06 
0.15 0.85 1.01898e-06 
0.15 0.875 8.4514e-07 
0.15 0.9 6.56863e-07 
0.15 0.925 4.46635e-07 
0.15 0.95 2.05294e-07 
0.15 0.975 7.49779e-08 
0.15 1 3.97111e-07 
0.15 1.025 7.58013e-07 
0.15 1.05 1.15252e-06 
0.15 1.075 1.58207e-06 
0.15 1.1 2.06291e-06 
0.15 1.125 2.62501e-06 
0.15 1.15 3.29455e-06 
0.15 1.175 4.06125e-06 
0.15 1.2 4.84494e-06 
0.15 1.225 5.48732e-06 
0.15 1.25 5.7936e-06 
0.15 1.275 5.63172e-06 
0.15 1.3 5.05835e-06 
0.15 1.325 4.38463e-06 
0.15 1.35 4.06467e-06 
0.15 1.375 4.35504e-06 
0.15 1.4 5.00481e-06 
0.15 1.425 5.55566e-06 
0.15 1.45 5.71145e-06 
0.15 1.475 5.4234e-06 
0.15 1.5 4.81334e-06 
0.15 1.525 4.05769e-06 
0.15 1.55 3.3017e-06 
0.15 1.575 2.62459e-06 
0.15 1.6 2.0458e-06 
0.15 1.625 1.55075e-06 
0.15 1.65 1.11646e-06 
0.15 1.675 7.26527e-07 
0.15 1.7 3.74436e-07 
0.15 1.725 5.96296e-08 
0.15 1.75 2.17885e-07 
0.15 1.775 4.60806e-07 
0.15 1.8 6.74818e-07 
0.15 1.825 8.66964e-07 
0.15 1.85 1.04371e-06 
0.15 1.875 1.20984e-06 
0.15 1.9 1.36842e-06 
0.15 1.925 1.52157e-06 
0.15 1.95 1.67104e-06 
0.15 1.975 1.81825e-06 
0.15 2 1.96343e-06 
0.175 0 2.1048e-06 
0.175 0.025 2.23888e-06 
0.175 0.05 2.36276e-06 
0.175 0.075 2.47781e-06 
0.175 0.1 2.59209e-06 
0.175 0.125 2.7182e-06 
0.175 0.15 2.86428e-06 
0.175 0.175 3.0211e-06 
0.175 0.2 3.15293e-06 
0.175 0.225 3.20265e-06 
0.175 0.25 3.11852e-06 
0.175 0.275 2.89816e-06 
0.175 0.3 2.62408e-06 
0.175 0.325 2.4531e-06 
0.175 0.35 2.5113e-06 
0.175 0.375 2.74105e-06 
0.175 0.4 2.98446e-06 
0.175 0.425 3.12611e-06 
0.175 0.45 3.13419e-06 
0.175 0.475 3.03841e-06 
0.175 0.5 2.89012e-06 
0.175 0.525 2.73192e-06 
0.175 0.55 2.58528e-06 
0.175 0.575 2.45293e-06 
0.175 0.6 2.32783e-06 
0.175 0.625 2.20176e-06 
0.175 0.65 2.07e-06 
0.175 0.675 1.93185e-06 
0.175 0.7 1.78882e-06 
0.175 0.725 1.64249e-06 
0.175 0.75 1.49337e-06 
0.175 0.775 1.34076e-06 
0.175 0.8 1.18324e-06 
0.175 0.825 1.01898e-06 
0.175 0.85 8.4514e-07 
0.175 0.875 6.56863e-07 
0.175 0.9 4.46635e-07 
0.175 0.925 2.05294e-07 
0.175 0.95 7.49779e-08 
0.175 0.975 3.97111e-07 
0.175 1 7.58013e-07 
0.175 1.025 1.15252e-06 
0.175 1.05 1.58207e-06 
0.175 1.075 2.06291e-06 
0.175 1.1 2.62501e-06 
0.175 1.125 3.29455e-06 
0.175 1.15 4.06125e-06 
0.175 1.175 4.84494e-06 
0.175 1.2 5.48732e-06 
0.175 1.225 5.7936e-06 
0.175 1.25 5.63172e-06 
0.175 1.275 5.05835e-06 
0.175 1.3 4.38463e-06 
0.175 1.325 4.06467e-06 
0.175 1.35 4.35504e-06 
0.175 1.375 5.00481e-06 
0.175 1.4 5.55566e-06 
0.175 1.425 5.71145e-06 
0.175 1.45 5.4234e-06 
0.175 1.475 4.81334e-06 
0.175 1.5 4.05769e-06 
0.175 1.525 3.3017e-06 
0.175 1.55 2.62459e-06 
0.175 1.575 2.0458e-06 
0.175 1.6 1.55075e-06 
0.175 1.625 1.11646e-06 
0.175 1.65 7.26527e-07 
0.175 1.675 3.74436e-07 
0.175 1.7 5.96296e-08 
0.175 1.725 2.17885e-07 
0.175 1.75 4.60806e-07 
0.175 1.775 6.74818e-07 
0.175 1.8 8.66964e-07 
0.175 1.825 1.04371e-06 
0.175 1.85 1.20984e-06 
0.175 1.875 1.36842e-06 
0.175 1.9 1.52157e-06 
0.175 1.925 1.67104e-06 
0.175 1.95 1.81825e-06 
0.175 1.975 1.96343e-06 
0.175 2 2.1048e-06 
0.2 0 2.23888e-06 
0.2 0.025 2.36276e-06 
0.2 0.05 2.47781e-06 
0.2 0.075 2.59209e-06 
0.2 0.1 2.7182e-06 
0.2 0.125 2.86428e-06 
0.2 0.15 3.0211e-06 
0.2 0.175 3.15293e-06 
0.2 0.2 3.20265e-06 
0.2 0.225 3.11852e-06 
0.2 0.25 2.89816e-06 
0.2 0.275 2.62408e-06 
0.2 0.3 2.4531e-06 
0.2 0.325 2.5113e-06 
0.2 0.35 2.74105e-06 
0.2 0.375 2.98446e-06 
0.2 0.4 3.12611e-06 
0.2 0.425 3.13419e-06 
0.2 0.45 3.03841e-06 
0.2 0.475 2.89012e-06 
0.2 0.5 2.73192e-06 
0.2 0.525 2.58528e-06 
0.2 0.55 2.45293e-06 
0.2 0.575 2.32783e-06 
0.2 0.6 2.20176e-06 
0.2 0.625 2.07e-06 
0.2 0.65 1.93185e-06 
0.2 0.675 1.78882e-06 
0.2 0.7 1.64249e-06 
0.2 0.725 1.49337e-06 
0.2 0.75 1.34076e-06 
0.2 0.775 1.18324e-06 
0.2 0.8 1.01898e-06 
0.2 0.825 8.4514e-07 
0.2 0.85 6.56863e-07 
0.2 0.875 4.46635e-07 
0.2 0.9 2.05294e-07 
0.2 0.925 7.49779e-08 
0.2 0.95 3.97111e-07 
0.2 0.975 7.58013e-07 
0.2 1 1.15252e-06 
0.2 1.025 1.58207e-06 
0.2 1.05 2.06291e-06 
0.2 1.075 2.62501e-06 
0.2 1.1 3.29455e-06 
0.2 1.125 4.06125e-06 
0.2 1.15 4.84494e-06 
0.2 1.175 5.48732e-06 
0.2 1.2 5.7936e-06 
0.2 1.225 5.63172e-06 
0.2 1.25 5.05835e-06 
0.2 1.275 4.38463e-06 
0.2 1.3 4.06467e-06 
0.2 1.325 4.35504e-06 
0.2 1.35 5.00481e-06 
0.2 1.375 5.55566e-06 
0.2 1.4 5.71145e-06 
0.2 1.425 5.4234e-06 
0.2 1.45 4.81334e-06 
0.2 1.475 4.05769e-06 
0.2 1.5 3.3017e-06 
0.2 1.525 2.62459e-06 
0.2 1.55 2.0458e-06 
0.2 1.575 1.55075e-06 
0.2 1.6 1.11646e-06 
0.2 1.625 7.26527e-07 
0.2 1.65 3.74436e-07 
0.2 1.675 5.96296e-08 
0.2 1.7 2.17885e-07 
0.2 1.725 4.60806e-07 
0.2 1.75 6.74818e-07 
0.2 1.775 8.66964e-07 
0.2 1.8 1.04371e-06 
0.2 1.825 1.20984e-06 
0.2 1.85 1.36842e-06 
0.2 1.875 1.52157e-06 
0.2 1.9 1.67104e-06 
0.2 1.925 1.81825e-06 
0.2 1.95 1.96343e-06 
0.2 1.975 2.1048e-06 
0.2 2 2.23888e-06 
0.225 0 2.36276e-06 
0.225 0.025 2.47781e-06 
0.225 0.05 2.59209e-06 
0.225 0.075 2.7182e-06 
0.225 0.1 2.86428e-06 
0.225 0.125 3.0211e-06 
0.225 0.15 3.15293e-06 
0.225 0.175 3.20265e-06 
0.225 0.2 3.11852e-06 
0.225 0.225 2.89816e-06 
0.225 0.25 2.62408e-06 
0.225 0.275 2.4531e-06 
0.225 0.3 2.5113e-06 
0.225 0.325 2.74105e-06 
0.225 0.35 2.98446e-06 
0.225 0.375 3.12611e-06 
0.225 0.4 3.13419e-06 
0.225 0.425 3.03841e-06 
0.225 0.45 2.89012e-06 
0.225 0.475 2.73192e-06 
0.225 0.5 2.58528e-06 
0.225 0.525 2.45293e-06 
0.225 0.55 2.32783e-06 
0.225 0.575 2.20176e-06 
0.225 0.6 2.07e-06 
0.225 0.625 1.93185e-06 
0.225 0.65 1.78882e-06 
0.225 0.675 1.64249e-06 
0.225 0.7 1.49337e-06 
0.225 0.725 1.34076e-06 
0.225 0.75 1.18324e-06 
0.225 0.775 1.01898e-06 
0.225 0.8 8.4514e-07 
0.225 0.825 6.56863e-07 
0.225 0.85 4.46635e-07 
0.225 0.875 2.05294e-07 
0.225 0.9 7.49779e-08 
0.225 0.925 3.97111e-07 
0.225 0.95 7.58013e-07 
0.225 0.975 1.15252e-06 
0.225 1 1.58207e-06 
0.225 1.025 2.06291e-06 
0.225 1.05 2.62501e-06 
0.225 1.075 3.29455e-06 
0.225 1.1 4.06125e-06 
0.225 1.125 4.84494e-06 
0.225 1.15 5.48732e-06 
0.225 1.175 5.7936e-06 
0.225 1.2 5.63172e-06 
0.225 1.225 5.05835e-06 
0.225 1.25 4.38463e-06 
0.225 1.275 4.06467e-06 
0.225 1.3 4.35504e-06 
0.225 1.325 5.00481e-06 
0.225 1.35 5.55566e-06 
0.225 1.375 5.71145e-06 
0.225 1.4 5.4234e-06 
0.225 1.425 4.81334e-06 
0.225 1.45 4.05769e-06 
0.225 1.475 3.3017e-06 
0.225 1.5 2.62459e-06 
0.225 1.525 2.0458e-06 
0.225 1.55 1.55075e-06 
0.225 1.575 1.11646e-06 
0.225 1.6 7.26527e-07 
0.225 1.625 3.74436e-07 
0.225 1.65 5.96296e-08 
0.225 1.675 2.17885e-07 
0.225 1.7 4.60806e-07 
0.225 1.725 6.74818e-07 
0.225 1.75 8.66964e-07 
0.225 1.775 1.04371e-06 
0.225 1.8 1.20984e-06 
0.225 1.825 1.36842e-06 
0.225 1.85 1.52157e-06 
0.225 1.875 1.67104e-06 
0.225 1.9 1.81825e-06 
0.225 1.925 1.96343e-06 
0.225 1.95 2.1048e-06 
0.225 1.975 2.23888e-06 
0.225 2 2.36276e-06 
0.25 0 2.47781e-06 
0.25 0.025 2.59209e-06 
0.25 0.05 2.7182e-06 
0.25 0.075 2.86428e-06 
0.25 0.1 3.0211e-06 
0.25 0.125 3.15293e-06 
0.25 0.15 3.20265e-06 
0.25 0.175 3.11852e-06 
0.25 0.2 2.89816e-06 
0.25 0.225 2.62408e-06 
0.25 0.25 2.4531e-06 
0.25 0.275 2.5113e-06 
0.25 0.3 2.74105e-06 
0.25 0.325 2.98446e-06 
0.25 0.35 3.12611e-06 
0.25 0.375 3.13419e-06 
0.25 0.4 3.03841e-06 
0.25 0.425 2.89012e-06 
0.25 0.45 2.73192e-06 
0.25 0.475 2.58528e-06 
0.25 0.5 2.45293e-06 
0.25 0.525 2.32783e-06 
0.25 0.55 2.20176e-06 
0.25 0.575 2.07e-06 
0.25 0.6 1.93185e-06 
0.25 0.625 1.78882e-06 
0.25 0.65 1.64249e-06 
0.25 0.675 1.49337e-06 
0.25 0.7 1.34076e-06 
0.25 0.725 1.18324e-06 
0.25 0.75 1.01898e-06 
0.25 0.775 8.4514e-07 
0.25 0.8 6.56863e-07 
0.25 0.825 4.46635e-07 
0.25 0.85 2.05294e-07 
0.25 0.875 7.49779e-08 
0.25 0.9 3.97111e-07 
0.25 0.925 7.58013e-07 
0.25 0.95 1.15252e-06 
0.25 0.975 1.58207e-06 
0.25 1 2.06291e-06 
0.25 1.025 2.62501e-06 
0.25 1.05 3.29455e-06 
0.25 1.075 4.06125e-06 
0.25 1.1 4.84494e-06 
0.25 1.125 5.48732e-06 
0.25 1.15 5.7936e-06 
0.25 1.175 5.63172e-06 
0.25 1.2 5.05835e-06 
0.25 1.225 4.38463e-06 
0.25 1.25 4.06467e-06 
0.25 1.275 4.35504e-06 
0.25 1.3 5.00481e-06 
0.25 1.325 5.55566e-06 
0.25 1.35 5.71145e-06 
0.25 1.375 5.4234e-06 
0.25 1.4 4.81334e-06 
0.25 1.425 4.05769e-06 
0.25 1.45 3.3017e-06 
0.25 1.475 2.62459e-06 
0.25 1.5 2.0458e-06 
0.25 1.525 1.55075e-06 
0.25 1.55 1.11646e-06 
0.25 1.575 7.26527e-07 
0.25 1.6 3.74436e-07 
0.25 1.625 5.96296e-08 
0.25 1.65 2.17885e-07 
0.25 1.675 4.60806e-07 
0.25 1.7 6.74818e-07 
0.25 1.725 8.66964e-07 
0.25 1.75 1.04371e-06 
0.25 1.775 1.20984e-06 
0.25 1.8 1.36842e-06 
0.25 1.825 1.52157e-06 
0.25 1.85 1.67104e-06 
0.25 1.875 1.81825e-06 
0.25 1.9 1.96343e-06 
0.25 1.925 2.1048e-06 
0.25 1.95 2.23888e-06 
0.25 1.975 2.36276e-06 
0.25 2 2.47781e-06 
0.275 0 2.59209e-06 
0.275 0.025 2.7182e-06 
0.275 0.05 2.86428e-06 
0.275 0.075 3.0211e-06 
0.275 0.1 3.15293e-06 
0.275 0.125 3.20265e-06 
0.275 0.15 3.11852e-06 
0.275 0.175 2.89816e-06 
0.275 0.2 2.62408e-06 
0.275 0.225 2.4531e-06 
0.275 0.25 2.5113e-06 
0.275 0.275 2.74105e-06 
0.275 0.3 2.98446e-06 
0.275 0.325 3.12611e-06 
0.275 0.35 3.13419e-06 
0.275 0.375 3.03841e-06 
0.275 0.4 2.89012e-06 
0.275 0.425 2.73192e-06 
0.275 0.45 2.58528e-06 
0.275 0.475 2.45293e-06 
0.275 0.5 2.32783e-06 
0.275 0.525 2.20176e-06 
0.275 0.55 2.07e-06 
0.275 0.575 1.93185e-06 
0.275 0.6 1.78882e-06 
0.275 0.625 1.64249e-06 
0.275 0.65 1.49337e-06 
0.275 0.675 1.34076e-06 
0.275 0.7 1.18324e-06 
0.275 0.725 1.01898e-06 
0.275 0.75 8.4514e-07 
0.275 0.775 6.56863e-07 
0.275 0.8 4.46635e-07 
0.275 0.825 2.05294e-07 
0.275 0.85 7.49779e-08 
0.275 0.875 3.97111e-07 
0.275 0.9 7.58013e-07 
0.275 0.925 1.15252e-06 
0.275 0.95 1.58207e-06 
0.275 0.975 2.06291e-06 
0.275 1 2.62501e-06 
0.275 1.025 3.29455e-06 
0.275 1.05 4.06125e-06 
0.275 1.075 4.84494e-06 
0.275 1.1 5.48732e-06 
0.275 1.125 5.7936e-06 
0.275 1.15 5.63172e-06 
0.275 1.175 5.05835e-06 
0.275 1.2 4.38463e-06 
0.275 1.225 4.06467e-06 
0.275 1.25 4.35504e-06 
0.275 1.275 5.00481e-06 
0.275 1.3 5.55566e-06 
0.275 1.325 5.71145e-06 
0.275 1.35 5.4234e-06 
0.275 1.375 4.81334e-06 
0.275 1.4 4.05769e-06 
0.275 1.425 3.3017e-06 
0.275 1.45 2.62459e-06 
0.275 1.475 2.0458e-06 
0.275 1.5 1.55075e-06 
0.275 1.525 1.11646e-06 
0.275 1.55 7.26527e-07 
0.275 1.575 3.74436e-07 
0.275 1.6 5.96296e-08 
0.275 1.625 2.17885e-07 
0.275 1.65 4.60806e-07 
0.275 1.675 6.74818e-07 
0.275 1.7 8.66964e-07 
0.275 1.725 1.04371e-06 
0.275 1.75 1.20984e-06 
0.275 1.775 1.36842e-06 
0.275 1.8 1.52157e-06 
0.275 1.825 1.67104e-06 
0.275 1.85 1.81825e-06 
0.275 1.875 1.96343e-06 
0.275 1.9 2.1048e-06 
0.275 1.925 2.23888e-06 
0.275 1.95 2.36276e-06 
0.275 1.975 2.47781e-06 
0.275 2 2.59209e-06 
0.3 0 2.7182e-06 
0.3 0.025 2.86428e-06 
0.3 0.05 3.0211e-06 
0.3 0.075 3.15293e-06 
0.3 0.1 3.20265e-06 
0.3 0.125 3.11852e-06 
0.3 0.15 2.89816e-06 
0.3 0.175 2.62408e-06 
0.3 0.2 2.4531e-06 
0.3 0.225 2.5113e-06 
0.3 0.25 2.74105e-06 
0.3 0.275 2.98446e-06 
0.3 0.3 3.12611e-06 
0.3 0.325 3.13419e-06 
0.3 0.35 3.03841e-06 
0.3 0.375 2.89012e-06 
0.3 0.4 2.73192e-06 
0.3 0.425 2.58528e-06 
0.3 0.45 2.45293e-06 
0.3 0.475 2.32783e-06 
0.3 0.5 2.20176e-06 
0.3 0.525 2.07e-06 
0.3 0.55 1.93185e-06 
0.3 0.575 1.78882e-06 
0.3 0.6 1.64249e-06 
0.3 0.625 1.49337e-06 
0.3 0.65 1.34076e-06 
0.3 0.675 1.18324e-06 
0.3 0.7 1.01898e-06 
0.3 0.725 8.4514e-07 
0.3 0.75 6.56863e-07 
0.3 0.775 4.46635e-07 
0.3 0.8 2.05294e-07 
0.3 0.825 7.49779e-08 
0.3 0.85 3.97111e-07 
0.3 0.875 7.58013e-07 
0.3 0.9 1.15252e-06 
0.3 0.925 1.58207e-06 
0.3 0.95 2.06291e-06 
0.3 0.975 2.62501e-06 
0.3 1 3.29455e-06 
0.3 1.025 4.06125e-06 
0.3 1.05 4.84494e-06 
0.3 1.075 5.48732e-06 
0.3 1.1 5.7936e-06 
0.3 1.125 5.63172e-06 
0.3 1.15 5.05835e-06 
0.3 1.175 4.38463e-06 
0.3 1.2 4.06467e-06 
0.3 1.225 4.35504e-06 
0.3 1.25 5.00481e-06 
0.3 1.275 5.55566e-06 
0.3 1.3 5.71145e-06 
0.3 1.325 5.4234e-06 
0.3 1.35 4.81334e-06 
0.3 1.375 4.05769e-06 
0.3 1.4 3.3017e-06 
0.3 1.425 2.62459e-06 
0.3 1.45 2.0458e-06 
0.3 1.475 1.55075e-06 
0.3 1.5 1.11646e-06 
0.3 1.525 7.26527e-07 
0.3 1.55 3.74436e-07 
0.3 1.575 5.96296e-08 
0.3 1.6 2.17885e-07 
0.3 1.625 4.60806e-07 
0.3 1.65 6.74818e-07 
0.3 1.675 8.66964e-07 
0.3 1.7 1.04371e-06 
0.3 1.725 1.20984e-06 
0.3 1.75 1.36842e-06 
0.3 1.775 1.52157e-06 
0.3 1.8 1.67104e-06 
0.3 1.825 1.81825e-06 
0.3 1.85 1.96343e-06 
0.3 1.875 2.1048e-06 
0.3 1.9 2.23888e-06 
0.3 1.925 2.36276e-06 
0.3 1.95 2.47781e-06 
0.3 1.975 2.59209e-06 
0.3 2 2.7182e-06 
0.325 0 2.86428e-06 
0.325 0.025 3.0211e-06 
0.325 0.05 3.15293e-06 
0.325 0.075 3.20265e-06 
0.325 0.1 3.11852e-06 
0.325 0.125 2.89816e-06 
0.325 0.15 2.62408e-06 
0.325 0.175 2.4531e-06 
0.325 0.2 2.5113e-06 
0.325 0.225 2.74105e-06 
0.325 0.25 2.98446e-06 
0.325 0.275 3.12611e-06 
0.325 0.3 3.13419e-06 
0.325 0.325 3.03841e-06 
0.325 0.35 2.89012e-06 
0.325 0.375 2.73192e-06 
0.325 0.4 2.58528e-06 
0.325 0.425 2.45293e-06 
0.325 0.45 2.32783e-06 
0.325 0.475 2.20176e-06 
0.325 0.5 2.07e-06 
0.325 0.525 1.93185e-06 
0.325 0.55 1.78882e-06 
0.325 0.575 1.64249e-06 
0.325 0.6 1.49337e-06 
0.325 0.625 1.34076e-06 
0.325 0.65 1.18324e-06 
0.325 0.675 1.01898e-06 
0.325 0.7 8.4514e-07 
0.325 0.725 6.56863e-07 
0.325 0.75 4.46635e-07 
0.325 0.775 2.05294e-07 
0.325 0.8 7.49779e-08 
0.325 0.825 3.97111e-07 
0.325 0.85 7.58013e-07 
0.325 0.875 1.15252e-06 
0.325 0.9 1.58207e-06 
0.325 0.925 2.06291e-06 
0.325 0.95 2.62501e-06 
0.325 0.975 3.29455e-06 
0.325 1 4.06125e-06 
0.325 1.025 4.84494e-06 
0.325 1.05 5.48732e-06 
0.325 1.075 5.7936e-06 
0.325 1.1 5.63172e-06 
0.325 1.125 5.05835e-06 
0.325 1.15 4.38463e-06 
0.325 1.175 4.06467e-06 
0.325 1.2 4.35504e-06 
0.325 1.225 5.00481e-06 
0.325 1.25 5.55566e-06 
0.325 1.275 5.71145e-06 
0.325 1.3 5.4234e-06 
0.325 1.325 4.81334e-06 
0.325 1.35 4.05769e-06 
0.325 1.375 3.3017e-06 
0.325 1.4 2.62459e-06 
0.325 1.425 2.0458e-06 
0.325 1.45 1.55075e-06 
0.325 1.475 1.11646e-06 
0.325 1.5 7.26527e-07 
0.325 1.525 3.74436e-07 
0.325 1.55 5.96296e-08 
0.325 1.575 2.17885e-07 
0.325 1.6 4.60806e-07 
0.325 1.625 6.74818e-07 
0.325 1.65 8.66964e-07 
0.325 1.675 1.04371e-06 
0.325 1.7 1.20984e-06 
0.325 1.725 1.36842e-06 
0.325 1.75 1.52157e-06 
0.325 1.775 1.67104e-06 
0.325 1.8 1.81825e-06 
0.325 1.825 1.96343e-06 
0.325 1.85 2.1048e-06 
0.325 1.875 2.23888e-06 
0.325 1.9 2.36276e-06 
0.325 1.925 2.47781e-06 
0.325 1.95 2.59209e-06 
0.325 1.975 2.7182e-06 
0.325 2 2.86428e-06 
0.35 0 3.0211e-06 
0.35 0.025 3.15293e-06 
0.35 0.05 3.20265e-06 
0.35 0.075 3.11852e-06 
0.35 0.1 2.89816e-06 
0.35 0.125 2.62408e-06 
0.35 0.15 2.4531e-06 
0.35 0.175 2.5113e-06 
0.35 0.2 2.74105e-06 
0.35 0.225 2.98446e-06 
0.35 0.25 3.12611e-06 
0.35 0.275 3.13419e-06 
0.35 0.3 3.03841e-06 
0.35 0.325 2.89012e-06 
0.35 0.35 2.73192e-06 
0.35 0.375 2.58528e-06 
0.35 0.4 2.45293e-06 
0.35 0.425 2.32783e-06 
0.35 0.45 2.20176e-06 
0.35 0.475 2.07e-06 
0.35 0.5 1.93185e-06 
0.35 0.525 1.78882e-06 
0.35 0.55 1.64249e-06 
0.35 0.575 1.49337e-06 
0.35 0.6 1.34076e-06 
0.35 0.625 1.18324e-06 
0.35 0.65 1.01898e-06 
0.35 0.675 8.4514e-07 
0.35 0.7 6.56863e-07 
0.35 0.725 4.46635e-07 
0.35 0.75 2.05294e-07 
0.35 0.775 7.49779e-08 
0.35 0.8 3.97111e-07 
0.35 0.825 7.58013e-07 
0.35 0.85 1.15252e-06 
0.35 0.875 1.58207e-06 
0.35 0.9 2.06291e-06 
0.35 0.925 2.62501e-06 
0.35 0.95 3.29455e-06 
0.35 0.975 4.06125e-06 
0.35 1 4.84494e-06 
0.35 1.025 5.48732e-06 
0.35 1.05 5.7936e-06 
0.35 1.075 5.63172e-06 
0.35 1.1 5.05835e-06 
0.35 1.125 4.38463e-06 
0.35 1.15 4.06467e-06 
0.35 1.175 4.35504e-06 
0.35 1.2 5.00481e-06 
0.35 1.225 5.55566e-06 
0.35 1.25 5.71145e-06 
0.35 1.275 5.4234e-06 
0.35 1.3 4.81334e-06 
0.35 1.325 4.05769e-06 
0.35 1.35 3.3017e-06 
0.35 1.375 2.62459e-06 
0.35 1.4 2.0458e-06 
0.35 1.425 1.55075e-06 
0.35 1.45 1.11646e-06 
0.35 1.475 7.26527e-07 
0.35 1.5 3.74436e-07 
0.35 1.525 5.96296e-08 
0.35 1.55 2.17885e-07 
0.35 1.575 4.60806e-07 
0.35 1.6 6.74818e-07 
0.35 1.625 8.66964e-07 
0.35 1.65 1.04371e-06 
0.35 1.675 1.20984e-06 
0.35 1.7 1.36842e-06 
0.35 1.725 1.52157e-06 
0.35 1.75 1.67104e-06 
0.35 1.775 1.81825e-06 
0.35 1.8 1.96343e-06 
0.35 1.825 2.1048e-06 
0.35 1.85 2.23888e-06 
0.35 1.875 2.36276e-06 
0.35 1.9 2.47781e-06 
0.35 1.925 2.59209e-06 
0.35 1.95 2.7182e-06 
0.35 1.975 2.86428e-06 
0.35 2 3.0211e-06 
0.375 0 3.15293e-06 
0.375 0.025 3.20265e-06 
0.375 0.05 3.11852e-06 
0.375 0.075 2.89816e-06 
0.375 0.1 2.62408e-06 
0.375 0.125 2.4531e-06 
0.375 0.15 2.5113e-06 
0.375 0.175 2.74105e-06 
0.375 0.2 2.98446e-06 
0.375 0.225 3.12611e-06 
0.375 0.25 3.13419e-06 
0.375 0.275 3.03841e-06 
0.375 0.3 2.89012e-06 
0.375 0.325 2.73192e-06 
0.375 0.35 2.58528e-06 
0.375 0.375 2.45293e-06 
0.375 0.4 2.32783e-06 
0.375 0.425 2.20176e-06 
0.375 0.45 2.07e-06 
0.375 0.475 1.93185e-06 
0.375 0.5 1.78882e-06 
0.375 0.525 1.64249e-06 
0.375 0.55 1.49337e-06 
0.375 0.575 1.34076e-06 
0.375 0.6 1.18324e-06 
0.375 0.625 1.01898e-06 
0.375 0.65 8.4514e-07 
0.375 0.675 6.56863e-07 
0.375 0.7 4.46635e-07 
0.375 0.725 2.05294e-07 
0.375 0.75 7.49779e-08 
0.375 0.775 3.97111e-07 
0.375 0.8 7.58013e-07 
0.375 0.825 1.15252e-06 
0.375 0.85 1.58207e-06 
0.375 0.875 2.06291e-06 
0.375 0.9 2.62501e-06 
0.375 0.925 3.29455e-06 
0.375 0.95 4.06125e-06 
0.375 0.975 4.84494e-06 
0.375 1 5.48732e-06 
0.375 1.025 5.7936e-06 
0.375 1.05 5.63172e-06 
0.375 1.075 5.05835e-06 
0.375 1.1 4.38463e-06 
0.375 1.125 4.06467e-06 
0.375 1.15 4.35504e-06 
0.375 1.175 5.00481e-06 
0.375 1.2 5.55566e-06 
0.375 1.225 5.71145e-06 
0.375 1.25 5.4234e-06 
0.375 1.275 4.81334e-06 
0.375 1.3 4.05769e-06 
0.375 1.325 3.3017e-06 
0.375 1.35 2.62459e-06 
0.375 1.375 2.0458e-06 
0.375 1.4 1.55075e-06 
0.375 1.425 1.11646e-06 
0.375 1.45 7.26527e-07 
0.375 1.475 3.74436e-07 
0.375 1.5 5.96296e-08 
0.375 1.525 2.17885e-07 
0.375 1.55 4.60806e-07 
0.375 1.575 6.74818e-07 
0.375 1.6 8.66964e-07 
0.375 1.625 1.04371e-06 
0.375 1.65 1.20984e-06 
0.375 1.675 1.36842e-06 
0.375 1.7 1.52157e-06 
0.375 1.725 1.67104e-06 
0.375 1.75 1.81825e-06 
0.375 1.775 1.96343e-06 
0.375 1.8 2.1048e-06 
0.375 1.825 2.23888e-06 
0.375 1.85 2.36276e-06 
0.375 1.875 2.47781e-06 
0.375 1.9 2.59209e-06 
0.375 1.925 2.7182e-06 