TITLE=DGSolution
VARIABLES=X Y rho u v pre c E 
ZONE T=TA, I=101, J=101, DATAPACKING = POINT
0 0 0.138 1.206 1.206 0.029 0.542405 0.273212 
0 0.01 0.138 1.206 1.206 0.029 0.542405 0.273212 
0 0.02 0.138 1.206 1.206 0.029 0.542405 0.273212 
0 0.03 0.138 1.206 1.206 0.029 0.542405 0.273212 
0 0.04 0.138 1.206 1.206 0.029 0.542405 0.273212 
0 0.05 0.138 1.206 1.206 0.029 0.542405 0.273212 
0 0.06 0.138 1.206 1.206 0.029 0.542405 0.273212 
0 0.07 0.138 1.206 1.206 0.029 0.542405 0.273212 
0 0.08 0.138 1.206 1.206 0.029 0.542405 0.273212 
0 0.09 0.138 1.206 1.206 0.029 0.542405 0.273212 
0 0.1 0.138 1.206 1.206 0.029 0.542405 0.273212 
0 0.11 0.138 1.206 1.206 0.029 0.542405 0.273212 
0 0.12 0.138 1.206 1.206 0.029 0.542405 0.273212 
0 0.13 0.138 1.206 1.206 0.029 0.542405 0.273212 
0 0.14 0.138 1.206 1.206 0.029 0.542405 0.273212 
0 0.15 0.138 1.206 1.206 0.029 0.542405 0.273212 
0 0.16 0.138 1.206 1.206 0.029 0.542405 0.273212 
0 0.17 0.138 1.206 1.206 0.029 0.542405 0.273212 
0 0.18 0.138 1.206 1.206 0.029 0.542405 0.273212 
0 0.19 0.138 1.206 1.206 0.029 0.542405 0.273212 
0 0.2 0.138 1.206 1.206 0.029 0.542405 0.273212 
0 0.21 0.138 1.206 1.206 0.029 0.542405 0.273212 
0 0.22 0.138 1.206 1.206 0.029 0.542405 0.273212 
0 0.23 0.138 1.206 1.206 0.029 0.542405 0.273212 
0 0.24 0.138 1.206 1.206 0.029 0.542405 0.273212 
0 0.25 0.138 1.206 1.206 0.029 0.542405 0.273212 
0 0.26 0.138 1.206 1.206 0.029 0.542405 0.273212 
0 0.27 0.138 1.206 1.206 0.029 0.542405 0.273212 
0 0.28 0.138 1.206 1.206 0.029 0.542405 0.273212 
0 0.29 0.138 1.206 1.206 0.029 0.542405 0.273212 
0 0.3 0.138 1.206 1.206 0.029 0.542405 0.273212 
0 0.31 0.138 1.206 1.206 0.029 0.542405 0.273212 
0 0.32 0.138 1.206 1.206 0.029 0.542405 0.273212 
0 0.33 0.138 1.206 1.206 0.029 0.542405 0.273212 
0 0.34 0.138 1.206 1.206 0.029 0.542405 0.273212 
0 0.35 0.138 1.206 1.206 0.029 0.542405 0.273212 
0 0.36 0.138 1.206 1.206 0.029 0.542405 0.273212 
0 0.37 0.138 1.206 1.206 0.029 0.542405 0.273212 
0 0.38 0.138 1.206 1.206 0.029 0.542405 0.273212 
0 0.39 0.138 1.206 1.206 0.029 0.542405 0.273212 
0 0.4 0.138 1.206 1.206 0.029 0.542405 0.273212 
0 0.41 0.138001 1.206 1.20599 0.0290003 0.542406 0.273213 
0 0.42 0.138018 1.206 1.20589 0.0290067 0.542432 0.273237 
0 0.43 0.13832 1.206 1.20401 0.0291298 0.542988 0.273671 
0 0.44 0.142794 1.206 1.17211 0.0314683 0.555451 0.280602 
0 0.45 0.193719 1.206 0.837672 0.0666377 0.693966 0.375436 
0 0.46 0.437212 1.206 0.134165 0.234233 0.866049 0.907467 
0 0.47 0.52878 1.206 0.00226469 0.297468 0.887456 1.12821 
0 0.48 0.53383 1.206 0.000873755 0.300856 0.888263 1.14035 
0 0.49 0.532252 1.206 -0.000795893 0.299864 0.888112 1.13672 
0 0.5 0.531407 1.206 -0.00243547 0.299205 0.88784 1.13446 
0 0.51 0.532285 1.206 -0.0016207 0.299812 0.888007 1.13662 
0 0.52 0.533376 1.206 -3.10399e-05 0.30068 0.888381 1.13958 
0 0.53 0.534102 1.206 0.000950591 0.301239 0.888602 1.14151 
0 0.54 0.53389 1.206 0.000130992 0.301034 0.888477 1.14084 
0 0.55 0.532135 1.206 -0.0022443 0.299747 0.888037 1.13635 
0 0.56 0.532033 1.206 -0.00260362 0.299629 0.887947 1.13598 
0 0.57 0.532901 1.206 -0.000881234 0.300301 0.888216 1.13829 
0 0.58 0.533205 1.206 4.53762e-05 0.300554 0.888338 1.13914 
0 0.59 0.532958 1.206 -0.00013805 0.300354 0.888248 1.13846 
0 0.6 0.532778 1.206 -0.000314998 0.3002 0.88817 1.13795 
0 0.61 0.532804 1.206 -0.000216934 0.30021 0.888163 1.13799 
0 0.62 0.532838 1.206 -0.000137124 0.300237 0.888175 1.13808 
0 0.63 0.532781 1.206 -0.000190551 0.300203 0.888172 1.13796 
0 0.64 0.532349 1.206 -0.000831091 0.299887 0.888064 1.13685 
0 0.65 0.531949 1.206 -0.0015284 0.299564 0.88792 1.13575 
0 0.66 0.532283 1.206 -0.00104684 0.299803 0.887996 1.13659 
0 0.67 0.532838 1.206 -4.54393e-05 0.30025 0.888194 1.13811 
0 0.68 0.533127 1.206 0.000550779 0.300484 0.888299 1.13891 
0 0.69 0.533052 1.206 0.000195453 0.30038 0.888208 1.1386 
0 0.7 0.532411 1.206 -0.000661463 0.299884 0.888009 1.13689 
0 0.71 0.53239 1.206 -0.000785095 0.299838 0.887959 1.13676 
0 0.72 0.532595 1.206 -0.000423899 0.299996 0.888022 1.1373 
0 0.73 0.532737 1.206 -0.000142432 0.30015 0.88813 1.13779 
0 0.74 0.532664 1.206 -8.48501e-05 0.300214 0.888286 1.1379 
0 0.75 0.53227 1.206 -8.69562e-05 0.300232 0.888641 1.13766 
0 0.76 0.530915 1.206 -6.61298e-05 0.300197 0.889722 1.13658 
0 0.77 0.528108 1.206 -0.000103517 0.300171 0.892046 1.13448 
0 0.78 0.525144 1.206 -0.000230982 0.300109 0.894467 1.13217 
0 0.79 0.523816 1.206 -0.00058523 0.299942 0.895351 1.13078 
0 0.8 0.524925 1.206 -0.000971223 0.29978 0.894164 1.13119 
0 0.81 0.52772 1.206 -0.000945256 0.299805 0.891829 1.13328 
0 0.82 0.530579 1.206 -0.0003622 0.30008 0.889831 1.13605 
0 0.83 0.531933 1.206 1.41797e-05 0.300243 0.888939 1.13744 
0 0.84 0.532367 1.206 9.35436e-05 0.300273 0.88862 1.13783 
0 0.85 0.53231 1.206 -0.000218675 0.300106 0.888421 1.13737 
0 0.86 0.53219 1.206 -0.000553116 0.29996 0.888305 1.13692 
0 0.87 0.532289 1.206 -0.00051647 0.300009 0.888296 1.13711 
0 0.88 0.53243 1.206 -0.000381798 0.300108 0.888324 1.13746 
0 0.89 0.532544 1.206 -0.000247689 0.300195 0.888359 1.13776 
0 0.9 0.532587 1.206 -0.000178774 0.300231 0.888375 1.13788 
0 0.91 0.532591 1.206 -0.00014664 0.300232 0.888373 1.13789 
0 0.92 0.532572 1.206 -0.000138359 0.300211 0.888359 1.13782 
0 0.93 0.532508 1.206 -0.000188896 0.30016 0.888336 1.13765 
0 0.94 0.532329 1.206 -0.000449742 0.300027 0.888289 1.13719 
0 0.95 0.532077 1.206 -0.000848736 0.299837 0.888217 1.13653 
0 0.96 0.532046 1.206 -0.00094933 0.299803 0.888193 1.13642 
0 0.97 0.532278 1.206 -0.000602739 0.299977 0.888256 1.13702 
0 0.98 0.532604 1.206 -0.000107348 0.300227 0.888355 1.13789 
0 0.99 0.532659 1.206 -1.36701e-05 0.300269 0.888372 1.13803 
0 1 0.532438 1.206 -0.000331599 0.3001 0.888305 1.13745 
0.01 0 0.138 1.206 1.206 0.029 0.542405 0.273212 
0.01 0.01 0.138 1.206 1.206 0.029 0.542405 0.273212 
0.01 0.02 0.138 1.206 1.206 0.029 0.542405 0.273212 
0.01 0.03 0.138 1.206 1.206 0.029 0.542405 0.273212 
0.01 0.04 0.138 1.206 1.206 0.029 0.542405 0.273212 
0.01 0.05 0.138 1.206 1.206 0.029 0.542405 0.273212 
0.01 0.06 0.138 1.206 1.206 0.029 0.542405 0.273212 
0.01 0.07 0.138 1.206 1.206 0.029 0.542405 0.273212 
0.01 0.08 0.138 1.206 1.206 0.029 0.542405 0.273212 
0.01 0.09 0.138 1.206 1.206 0.029 0.542405 0.273212 
0.01 0.1 0.138 1.206 1.206 0.029 0.542405 0.273212 
0.01 0.11 0.138 1.206 1.206 0.029 0.542405 0.273212 
0.01 0.12 0.138 1.206 1.206 0.029 0.542405 0.273212 
0.01 0.13 0.138 1.206 1.206 0.029 0.542405 0.273212 
0.01 0.14 0.138 1.206 1.206 0.029 0.542405 0.273212 
0.01 0.15 0.138 1.206 1.206 0.029 0.542405 0.273212 
0.01 0.16 0.138 1.206 1.206 0.029 0.542405 0.273212 
0.01 0.17 0.138 1.206 1.206 0.029 0.542405 0.273212 
0.01 0.18 0.138 1.206 1.206 0.029 0.542405 0.273212 
0.01 0.19 0.138 1.206 1.206 0.029 0.542405 0.273212 
0.01 0.2 0.138 1.206 1.206 0.029 0.542405 0.273212 
0.01 0.21 0.138 1.206 1.206 0.029 0.542405 0.273212 
0.01 0.22 0.138 1.206 1.206 0.029 0.542405 0.273212 
0.01 0.23 0.138 1.206 1.206 0.029 0.542405 0.273212 
0.01 0.24 0.138 1.206 1.206 0.029 0.542405 0.273212 
0.01 0.25 0.138 1.206 1.206 0.029 0.542405 0.273212 
0.01 0.26 0.138 1.206 1.206 0.029 0.542405 0.273212 
0.01 0.27 0.138 1.206 1.206 0.029 0.542405 0.273212 
0.01 0.28 0.138 1.206 1.206 0.029 0.542405 0.273212 
0.01 0.29 0.138 1.206 1.206 0.029 0.542405 0.273212 
0.01 0.3 0.138 1.206 1.206 0.029 0.542405 0.273212 
0.01 0.31 0.138 1.206 1.206 0.029 0.542405 0.273212 
0.01 0.32 0.138 1.206 1.206 0.029 0.542405 0.273212 
0.01 0.33 0.138 1.206 1.206 0.029 0.542405 0.273212 
0.01 0.34 0.138 1.206 1.206 0.029 0.542405 0.273212 
0.01 0.35 0.138 1.206 1.206 0.029 0.542405 0.273212 
0.01 0.36 0.138 1.206 1.206 0.029 0.542405 0.273212 
0.01 0.37 0.138 1.206 1.206 0.029 0.542405 0.273212 
0.01 0.38 0.138 1.206 1.206 0.029 0.542405 0.273212 
0.01 0.39 0.138 1.206 1.206 0.029 0.542405 0.273212 
0.01 0.4 0.138 1.206 1.206 0.029 0.542405 0.273212 
0.01 0.41 0.138001 1.206 1.20599 0.0290003 0.542406 0.273213 
0.01 0.42 0.138018 1.206 1.20589 0.0290067 0.542432 0.273237 
0.01 0.43 0.13832 1.206 1.20401 0.0291298 0.542988 0.273671 
0.01 0.44 0.142794 1.206 1.17211 0.0314683 0.555451 0.280602 
0.01 0.45 0.193719 1.206 0.837672 0.0666377 0.693966 0.375436 
0.01 0.46 0.437212 1.206 0.134165 0.234233 0.866049 0.907467 
0.01 0.47 0.52878 1.206 0.00226469 0.297468 0.887456 1.12821 
0.01 0.48 0.53383 1.206 0.000873755 0.300856 0.888263 1.14035 
0.01 0.49 0.532252 1.206 -0.000795893 0.299864 0.888112 1.13672 
0.01 0.5 0.531407 1.206 -0.00243547 0.299205 0.88784 1.13446 
0.01 0.51 0.532285 1.206 -0.0016207 0.299812 0.888007 1.13662 
0.01 0.52 0.533376 1.206 -3.10399e-05 0.30068 0.888381 1.13958 
0.01 0.53 0.534102 1.206 0.000950591 0.301239 0.888602 1.14151 
0.01 0.54 0.53389 1.206 0.000130992 0.301034 0.888477 1.14084 
0.01 0.55 0.532135 1.206 -0.0022443 0.299747 0.888037 1.13635 
0.01 0.56 0.532033 1.206 -0.00260362 0.299629 0.887947 1.13598 
0.01 0.57 0.532901 1.206 -0.000881234 0.300301 0.888216 1.13829 
0.01 0.58 0.533205 1.206 4.53762e-05 0.300554 0.888338 1.13914 
0.01 0.59 0.532958 1.206 -0.00013805 0.300354 0.888248 1.13846 
0.01 0.6 0.532778 1.206 -0.000314998 0.3002 0.88817 1.13795 
0.01 0.61 0.532804 1.206 -0.000216934 0.30021 0.888163 1.13799 
0.01 0.62 0.532838 1.206 -0.000137124 0.300237 0.888175 1.13808 
0.01 0.63 0.532781 1.206 -0.000190551 0.300203 0.888172 1.13796 
0.01 0.64 0.532349 1.206 -0.000831091 0.299887 0.888064 1.13685 
0.01 0.65 0.531949 1.206 -0.0015284 0.299564 0.88792 1.13575 
0.01 0.66 0.532283 1.206 -0.00104684 0.299803 0.887996 1.13659 
0.01 0.67 0.532838 1.206 -4.54393e-05 0.30025 0.888194 1.13811 
0.01 0.68 0.533127 1.206 0.000550779 0.300484 0.888299 1.13891 
0.01 0.69 0.533052 1.206 0.000195453 0.30038 0.888208 1.1386 
0.01 0.7 0.532411 1.206 -0.000661463 0.299884 0.888009 1.13689 
0.01 0.71 0.53239 1.206 -0.000785095 0.299838 0.887959 1.13676 
0.01 0.72 0.532595 1.206 -0.000423899 0.299996 0.888022 1.1373 
0.01 0.73 0.532737 1.206 -0.000142432 0.30015 0.88813 1.13779 
0.01 0.74 0.532664 1.206 -8.48501e-05 0.300214 0.888286 1.1379 
0.01 0.75 0.53227 1.206 -8.69562e-05 0.300232 0.888641 1.13766 
0.01 0.76 0.530915 1.206 -6.61298e-05 0.300197 0.889722 1.13658 
0.01 0.77 0.528108 1.206 -0.000103517 0.300171 0.892046 1.13448 
0.01 0.78 0.525144 1.206 -0.000230982 0.300109 0.894467 1.13217 
0.01 0.79 0.523816 1.206 -0.00058523 0.299942 0.895351 1.13078 
0.01 0.8 0.524925 1.206 -0.000971223 0.29978 0.894164 1.13119 
0.01 0.81 0.52772 1.206 -0.000945256 0.299805 0.891829 1.13328 
0.01 0.82 0.530579 1.206 -0.0003622 0.30008 0.889831 1.13605 
0.01 0.83 0.531933 1.206 1.41797e-05 0.300243 0.888939 1.13744 
0.01 0.84 0.532367 1.206 9.35436e-05 0.300273 0.88862 1.13783 
0.01 0.85 0.53231 1.206 -0.000218675 0.300106 0.888421 1.13737 
0.01 0.86 0.53219 1.206 -0.000553116 0.29996 0.888305 1.13692 
0.01 0.87 0.532289 1.206 -0.00051647 0.300009 0.888296 1.13711 
0.01 0.88 0.53243 1.206 -0.000381798 0.300108 0.888324 1.13746 
0.01 0.89 0.532544 1.206 -0.000247689 0.300195 0.888359 1.13776 
0.01 0.9 0.532587 1.206 -0.000178774 0.300231 0.888375 1.13788 
0.01 0.91 0.532591 1.206 -0.00014664 0.300232 0.888373 1.13789 
0.01 0.92 0.532572 1.206 -0.000138359 0.300211 0.888359 1.13782 
0.01 0.93 0.532508 1.206 -0.000188896 0.30016 0.888336 1.13765 
0.01 0.94 0.532329 1.206 -0.000449742 0.300027 0.888289 1.13719 
0.01 0.95 0.532077 1.206 -0.000848736 0.299837 0.888217 1.13653 
0.01 0.96 0.532046 1.206 -0.00094933 0.299803 0.888193 1.13642 
0.01 0.97 0.532278 1.206 -0.000602739 0.299977 0.888256 1.13702 
0.01 0.98 0.532604 1.206 -0.000107348 0.300227 0.888355 1.13789 
0.01 0.99 0.532659 1.206 -1.36701e-05 0.300269 0.888372 1.13803 
0.01 1 0.532438 1.206 -0.000331599 0.3001 0.888305 1.13745 
0.02 0 0.138 1.206 1.206 0.029 0.542405 0.273212 
0.02 0.01 0.138 1.206 1.206 0.029 0.542405 0.273212 
0.02 0.02 0.138 1.206 1.206 0.029 0.542405 0.273212 
0.02 0.03 0.138 1.206 1.206 0.029 0.542405 0.273212 
0.02 0.04 0.138 1.206 1.206 0.029 0.542405 0.273212 
0.02 0.05 0.138 1.206 1.206 0.029 0.542405 0.273212 
0.02 0.06 0.138 1.206 1.206 0.029 0.542405 0.273212 
0.02 0.07 0.138 1.206 1.206 0.029 0.542405 0.273212 
0.02 0.08 0.138 1.206 1.206 0.029 0.542405 0.273212 
0.02 0.09 0.138 1.206 1.206 0.029 0.542405 0.273212 
0.02 0.1 0.138 1.206 1.206 0.029 0.542405 0.273212 
0.02 0.11 0.138 1.206 1.206 0.029 0.542405 0.273212 
0.02 0.12 0.138 1.206 1.206 0.029 0.542405 0.273212 
0.02 0.13 0.138 1.206 1.206 0.029 0.542405 0.273212 
0.02 0.14 0.138 1.206 1.206 0.029 0.542405 0.273212 
0.02 0.15 0.138 1.206 1.206 0.029 0.542405 0.273212 
0.02 0.16 0.138 1.206 1.206 0.029 0.542405 0.273212 
0.02 0.17 0.138 1.206 1.206 0.029 0.542405 0.273212 
0.02 0.18 0.138 1.206 1.206 0.029 0.542405 0.273212 
0.02 0.19 0.138 1.206 1.206 0.029 0.542405 0.273212 
0.02 0.2 0.138 1.206 1.206 0.029 0.542405 0.273212 
0.02 0.21 0.138 1.206 1.206 0.029 0.542405 0.273212 
0.02 0.22 0.138 1.206 1.206 0.029 0.542405 0.273212 
0.02 0.23 0.138 1.206 1.206 0.029 0.542405 0.273212 
0.02 0.24 0.138 1.206 1.206 0.029 0.542405 0.273212 
0.02 0.25 0.138 1.206 1.206 0.029 0.542405 0.273212 
0.02 0.26 0.138 1.206 1.206 0.029 0.542405 0.273212 
0.02 0.27 0.138 1.206 1.206 0.029 0.542405 0.273212 
0.02 0.28 0.138 1.206 1.206 0.029 0.542405 0.273212 
0.02 0.29 0.138 1.206 1.206 0.029 0.542405 0.273212 
0.02 0.3 0.138 1.206 1.206 0.029 0.542405 0.273212 
0.02 0.31 0.138 1.206 1.206 0.029 0.542405 0.273212 
0.02 0.32 0.138 1.206 1.206 0.029 0.542405 0.273212 
0.02 0.33 0.138 1.206 1.206 0.029 0.542405 0.273212 
0.02 0.34 0.138 1.206 1.206 0.029 0.542405 0.273212 
0.02 0.35 0.138 1.206 1.206 0.029 0.542405 0.273212 
0.02 0.36 0.138 1.206 1.206 0.029 0.542405 0.273212 
0.02 0.37 0.138 1.206 1.206 0.029 0.542405 0.273212 
0.02 0.38 0.138 1.206 1.206 0.029 0.542405 0.273212 
0.02 0.39 0.138 1.206 1.206 0.029 0.542405 0.273212 
0.02 0.4 0.138 1.206 1.206 0.029 0.542405 0.273212 
0.02 0.41 0.138001 1.206 1.20599 0.0290003 0.542406 0.273213 
0.02 0.42 0.138018 1.206 1.20589 0.0290067 0.542432 0.273237 
0.02 0.43 0.13832 1.206 1.20401 0.0291298 0.542988 0.273671 
0.02 0.44 0.142794 1.206 1.17211 0.0314683 0.555451 0.280602 
0.02 0.45 0.193719 1.206 0.837672 0.0666377 0.693966 0.375436 
0.02 0.46 0.437212 1.206 0.134165 0.234233 0.866049 0.907467 
0.02 0.47 0.52878 1.206 0.00226469 0.297468 0.887456 1.12821 
0.02 0.48 0.53383 1.206 0.000873756 0.300856 0.888263 1.14035 
0.02 0.49 0.532252 1.206 -0.000795893 0.299864 0.888112 1.13672 
0.02 0.5 0.531407 1.206 -0.00243547 0.299205 0.88784 1.13446 
0.02 0.51 0.532285 1.206 -0.0016207 0.299812 0.888007 1.13662 
0.02 0.52 0.533376 1.206 -3.10399e-05 0.30068 0.888381 1.13958 
0.02 0.53 0.534102 1.206 0.000950591 0.301239 0.888602 1.14151 
0.02 0.54 0.53389 1.206 0.000130992 0.301034 0.888477 1.14084 
0.02 0.55 0.532135 1.206 -0.0022443 0.299747 0.888037 1.13635 
0.02 0.56 0.532033 1.206 -0.00260362 0.299629 0.887947 1.13598 
0.02 0.57 0.532901 1.206 -0.000881234 0.300301 0.888216 1.13829 
0.02 0.58 0.533205 1.206 4.53762e-05 0.300554 0.888338 1.13914 
0.02 0.59 0.532958 1.206 -0.00013805 0.300354 0.888248 1.13846 
0.02 0.6 0.532778 1.206 -0.000314998 0.3002 0.88817 1.13795 
0.02 0.61 0.532804 1.206 -0.000216934 0.30021 0.888163 1.13799 
0.02 0.62 0.532838 1.206 -0.000137124 0.300237 0.888175 1.13808 
0.02 0.63 0.532781 1.206 -0.000190551 0.300203 0.888172 1.13796 
0.02 0.64 0.532349 1.206 -0.000831091 0.299887 0.888064 1.13685 
0.02 0.65 0.531949 1.206 -0.0015284 0.299564 0.88792 1.13575 
0.02 0.66 0.532283 1.206 -0.00104684 0.299803 0.887996 1.13659 
0.02 0.67 0.532838 1.206 -4.54393e-05 0.30025 0.888194 1.13811 
0.02 0.68 0.533127 1.206 0.000550779 0.300484 0.888299 1.13891 
0.02 0.69 0.533052 1.206 0.000195453 0.30038 0.888208 1.1386 
0.02 0.7 0.532411 1.206 -0.000661463 0.299884 0.888009 1.13689 
0.02 0.71 0.53239 1.206 -0.000785095 0.299838 0.887959 1.13676 
0.02 0.72 0.532595 1.206 -0.000423899 0.299996 0.888022 1.1373 
0.02 0.73 0.532737 1.206 -0.000142432 0.30015 0.88813 1.13779 
0.02 0.74 0.532664 1.206 -8.48501e-05 0.300214 0.888286 1.1379 
0.02 0.75 0.53227 1.206 -8.69562e-05 0.300232 0.888641 1.13766 
0.02 0.76 0.530915 1.206 -6.61298e-05 0.300197 0.889722 1.13658 
0.02 0.77 0.528108 1.206 -0.000103517 0.300171 0.892046 1.13448 
0.02 0.78 0.525144 1.206 -0.000230982 0.300109 0.894467 1.13217 
0.02 0.79 0.523816 1.206 -0.00058523 0.299942 0.895351 1.13078 
0.02 0.8 0.524925 1.206 -0.000971223 0.29978 0.894164 1.13119 
0.02 0.81 0.52772 1.206 -0.000945256 0.299805 0.891829 1.13328 
0.02 0.82 0.530579 1.206 -0.0003622 0.30008 0.889831 1.13605 
0.02 0.83 0.531933 1.206 1.41797e-05 0.300243 0.888939 1.13744 
0.02 0.84 0.532367 1.206 9.35436e-05 0.300273 0.88862 1.13783 
0.02 0.85 0.53231 1.206 -0.000218675 0.300106 0.888421 1.13737 
0.02 0.86 0.53219 1.206 -0.000553116 0.29996 0.888305 1.13692 
0.02 0.87 0.532289 1.206 -0.00051647 0.300009 0.888296 1.13711 
0.02 0.88 0.53243 1.206 -0.000381798 0.300108 0.888324 1.13746 
0.02 0.89 0.532544 1.206 -0.000247689 0.300195 0.888359 1.13776 
0.02 0.9 0.532587 1.206 -0.000178774 0.300231 0.888375 1.13788 
0.02 0.91 0.532591 1.206 -0.00014664 0.300232 0.888373 1.13789 
0.02 0.92 0.532572 1.206 -0.000138359 0.300211 0.888359 1.13782 
0.02 0.93 0.532508 1.206 -0.000188896 0.30016 0.888336 1.13765 
0.02 0.94 0.532329 1.206 -0.000449742 0.300027 0.888289 1.13719 
0.02 0.95 0.532077 1.206 -0.000848736 0.299837 0.888217 1.13653 
0.02 0.96 0.532046 1.206 -0.00094933 0.299803 0.888193 1.13642 
0.02 0.97 0.532278 1.206 -0.000602739 0.299977 0.888256 1.13702 
0.02 0.98 0.532604 1.206 -0.000107348 0.300227 0.888355 1.13789 
0.02 0.99 0.532659 1.206 -1.36701e-05 0.300269 0.888372 1.13803 
0.02 1 0.532438 1.206 -0.000331599 0.3001 0.888305 1.13745 
0.03 0 0.138 1.206 1.206 0.029 0.542405 0.273212 
0.03 0.01 0.138 1.206 1.206 0.029 0.542405 0.273212 
0.03 0.02 0.138 1.206 1.206 0.029 0.542405 0.273212 
0.03 0.03 0.138 1.206 1.206 0.029 0.542405 0.273212 
0.03 0.04 0.138 1.206 1.206 0.029 0.542405 0.273212 
0.03 0.05 0.138 1.206 1.206 0.029 0.542405 0.273212 
0.03 0.06 0.138 1.206 1.206 0.029 0.542405 0.273212 
0.03 0.07 0.138 1.206 1.206 0.029 0.542405 0.273212 
0.03 0.08 0.138 1.206 1.206 0.029 0.542405 0.273212 
0.03 0.09 0.138 1.206 1.206 0.029 0.542405 0.273212 
0.03 0.1 0.138 1.206 1.206 0.029 0.542405 0.273212 
0.03 0.11 0.138 1.206 1.206 0.029 0.542405 0.273212 
0.03 0.12 0.138 1.206 1.206 0.029 0.542405 0.273212 
0.03 0.13 0.138 1.206 1.206 0.029 0.542405 0.273212 
0.03 0.14 0.138 1.206 1.206 0.029 0.542405 0.273212 
0.03 0.15 0.138 1.206 1.206 0.029 0.542405 0.273212 
0.03 0.16 0.138 1.206 1.206 0.029 0.542405 0.273212 
0.03 0.17 0.138 1.206 1.206 0.029 0.542405 0.273212 
0.03 0.18 0.138 1.206 1.206 0.029 0.542405 0.273212 
0.03 0.19 0.138 1.206 1.206 0.029 0.542405 0.273212 
0.03 0.2 0.138 1.206 1.206 0.029 0.542405 0.273212 
0.03 0.21 0.138 1.206 1.206 0.029 0.542405 0.273212 
0.03 0.22 0.138 1.206 1.206 0.029 0.542405 0.273212 
0.03 0.23 0.138 1.206 1.206 0.029 0.542405 0.273212 
0.03 0.24 0.138 1.206 1.206 0.029 0.542405 0.273212 
0.03 0.25 0.138 1.206 1.206 0.029 0.542405 0.273212 
0.03 0.26 0.138 1.206 1.206 0.029 0.542405 0.273212 
0.03 0.27 0.138 1.206 1.206 0.029 0.542405 0.273212 
0.03 0.28 0.138 1.206 1.206 0.029 0.542405 0.273212 
0.03 0.29 0.138 1.206 1.206 0.029 0.542405 0.273212 
0.03 0.3 0.138 1.206 1.206 0.029 0.542405 0.273212 
0.03 0.31 0.138 1.206 1.206 0.029 0.542405 0.273212 
0.03 0.32 0.138 1.206 1.206 0.029 0.542405 0.273212 
0.03 0.33 0.138 1.206 1.206 0.029 0.542405 0.273212 
0.03 0.34 0.138 1.206 1.206 0.029 0.542405 0.273212 
0.03 0.35 0.138 1.206 1.206 0.029 0.542405 0.273212 
0.03 0.36 0.138 1.206 1.206 0.029 0.542405 0.273212 
0.03 0.37 0.138 1.206 1.206 0.029 0.542405 0.273212 
0.03 0.38 0.138 1.206 1.206 0.029 0.542405 0.273212 
0.03 0.39 0.138 1.206 1.206 0.029 0.542405 0.273212 
0.03 0.4 0.138 1.206 1.206 0.029 0.542405 0.273212 
0.03 0.41 0.138001 1.206 1.20599 0.0290003 0.542406 0.273213 
0.03 0.42 0.138018 1.206 1.20589 0.0290067 0.542432 0.273237 
0.03 0.43 0.13832 1.206 1.20401 0.0291298 0.542988 0.273671 
0.03 0.44 0.142794 1.206 1.17211 0.0314683 0.555451 0.280602 
0.03 0.45 0.193719 1.206 0.837672 0.0666377 0.693966 0.375436 
0.03 0.46 0.437212 1.206 0.134165 0.234233 0.866049 0.907467 
0.03 0.47 0.52878 1.206 0.0022647 0.297468 0.887456 1.12821 
0.03 0.48 0.53383 1.206 0.000873757 0.300856 0.888263 1.14035 
0.03 0.49 0.532252 1.206 -0.000795892 0.299864 0.888112 1.13672 
0.03 0.5 0.531407 1.206 -0.00243547 0.299205 0.88784 1.13446 
0.03 0.51 0.532285 1.206 -0.0016207 0.299812 0.888007 1.13662 
0.03 0.52 0.533376 1.206 -3.10399e-05 0.30068 0.888381 1.13958 
0.03 0.53 0.534102 1.206 0.000950591 0.301239 0.888602 1.14151 
0.03 0.54 0.53389 1.206 0.000130992 0.301034 0.888477 1.14084 
0.03 0.55 0.532135 1.206 -0.0022443 0.299747 0.888037 1.13635 
0.03 0.56 0.532033 1.206 -0.00260362 0.299629 0.887947 1.13598 
0.03 0.57 0.532901 1.206 -0.000881234 0.300301 0.888216 1.13829 
0.03 0.58 0.533205 1.206 4.53762e-05 0.300554 0.888338 1.13914 
0.03 0.59 0.532958 1.206 -0.00013805 0.300354 0.888248 1.13846 
0.03 0.6 0.532778 1.206 -0.000314998 0.3002 0.88817 1.13795 
0.03 0.61 0.532804 1.206 -0.000216934 0.30021 0.888163 1.13799 
0.03 0.62 0.532838 1.206 -0.000137124 0.300237 0.888175 1.13808 
0.03 0.63 0.532781 1.206 -0.000190551 0.300203 0.888172 1.13796 
0.03 0.64 0.532349 1.206 -0.000831091 0.299887 0.888064 1.13685 
0.03 0.65 0.531949 1.206 -0.0015284 0.299564 0.88792 1.13575 
0.03 0.66 0.532283 1.206 -0.00104684 0.299803 0.887996 1.13659 
0.03 0.67 0.532838 1.206 -4.54393e-05 0.30025 0.888194 1.13811 
0.03 0.68 0.533127 1.206 0.000550779 0.300484 0.888299 1.13891 
0.03 0.69 0.533052 1.206 0.000195453 0.30038 0.888208 1.1386 
0.03 0.7 0.532411 1.206 -0.000661463 0.299884 0.888009 1.13689 
0.03 0.71 0.53239 1.206 -0.000785095 0.299838 0.887959 1.13676 
0.03 0.72 0.532595 1.206 -0.000423899 0.299996 0.888022 1.1373 
0.03 0.73 0.532737 1.206 -0.000142432 0.30015 0.88813 1.13779 
0.03 0.74 0.532664 1.206 -8.48501e-05 0.300214 0.888286 1.1379 
0.03 0.75 0.53227 1.206 -8.69562e-05 0.300232 0.888641 1.13766 
0.03 0.76 0.530915 1.206 -6.61298e-05 0.300197 0.889722 1.13658 
0.03 0.77 0.528108 1.206 -0.000103517 0.300171 0.892046 1.13448 
0.03 0.78 0.525144 1.206 -0.000230982 0.300109 0.894467 1.13217 
0.03 0.79 0.523816 1.206 -0.00058523 0.299942 0.895351 1.13078 
0.03 0.8 0.524925 1.206 -0.000971223 0.29978 0.894164 1.13119 
0.03 0.81 0.52772 1.206 -0.000945256 0.299805 0.891829 1.13328 
0.03 0.82 0.530579 1.206 -0.0003622 0.30008 0.889831 1.13605 
0.03 0.83 0.531933 1.206 1.41797e-05 0.300243 0.888939 1.13744 
0.03 0.84 0.532367 1.206 9.35436e-05 0.300273 0.88862 1.13783 
0.03 0.85 0.53231 1.206 -0.000218675 0.300106 0.888421 1.13737 
0.03 0.86 0.53219 1.206 -0.000553116 0.29996 0.888305 1.13692 
0.03 0.87 0.532289 1.206 -0.00051647 0.300009 0.888296 1.13711 
0.03 0.88 0.53243 1.206 -0.000381798 0.300108 0.888324 1.13746 
0.03 0.89 0.532544 1.206 -0.000247689 0.300195 0.888359 1.13776 
0.03 0.9 0.532587 1.206 -0.000178774 0.300231 0.888375 1.13788 
0.03 0.91 0.532591 1.206 -0.00014664 0.300232 0.888373 1.13789 
0.03 0.92 0.532572 1.206 -0.000138359 0.300211 0.888359 1.13782 
0.03 0.93 0.532508 1.206 -0.000188896 0.30016 0.888336 1.13765 
0.03 0.94 0.532329 1.206 -0.000449742 0.300027 0.888289 1.13719 
0.03 0.95 0.532077 1.206 -0.000848736 0.299837 0.888217 1.13653 
0.03 0.96 0.532046 1.206 -0.00094933 0.299803 0.888193 1.13642 
0.03 0.97 0.532278 1.206 -0.000602739 0.299977 0.888256 1.13702 
0.03 0.98 0.532604 1.206 -0.000107348 0.300227 0.888355 1.13789 
0.03 0.99 0.532659 1.206 -1.36701e-05 0.300269 0.888372 1.13803 
0.03 1 0.532438 1.206 -0.000331599 0.3001 0.888305 1.13745 
0.04 0 0.138 1.206 1.206 0.029 0.542405 0.273212 
0.04 0.01 0.138 1.206 1.206 0.029 0.542405 0.273212 
0.04 0.02 0.138 1.206 1.206 0.029 0.542405 0.273212 
0.04 0.03 0.138 1.206 1.206 0.029 0.542405 0.273212 
0.04 0.04 0.138 1.206 1.206 0.029 0.542405 0.273212 
0.04 0.05 0.138 1.206 1.206 0.029 0.542405 0.273212 
0.04 0.06 0.138 1.206 1.206 0.029 0.542405 0.273212 
0.04 0.07 0.138 1.206 1.206 0.029 0.542405 0.273212 
0.04 0.08 0.138 1.206 1.206 0.029 0.542405 0.273212 
0.04 0.09 0.138 1.206 1.206 0.029 0.542405 0.273212 
0.04 0.1 0.138 1.206 1.206 0.029 0.542405 0.273212 
0.04 0.11 0.138 1.206 1.206 0.029 0.542405 0.273212 
0.04 0.12 0.138 1.206 1.206 0.029 0.542405 0.273212 
0.04 0.13 0.138 1.206 1.206 0.029 0.542405 0.273212 
0.04 0.14 0.138 1.206 1.206 0.029 0.542405 0.273212 
0.04 0.15 0.138 1.206 1.206 0.029 0.542405 0.273212 
0.04 0.16 0.138 1.206 1.206 0.029 0.542405 0.273212 
0.04 0.17 0.138 1.206 1.206 0.029 0.542405 0.273212 
0.04 0.18 0.138 1.206 1.206 0.029 0.542405 0.273212 
0.04 0.19 0.138 1.206 1.206 0.029 0.542405 0.273212 
0.04 0.2 0.138 1.206 1.206 0.029 0.542405 0.273212 
0.04 0.21 0.138 1.206 1.206 0.029 0.542405 0.273212 
0.04 0.22 0.138 1.206 1.206 0.029 0.542405 0.273212 
0.04 0.23 0.138 1.206 1.206 0.029 0.542405 0.273212 
0.04 0.24 0.138 1.206 1.206 0.029 0.542405 0.273212 
0.04 0.25 0.138 1.206 1.206 0.029 0.542405 0.273212 
0.04 0.26 0.138 1.206 1.206 0.029 0.542405 0.273212 
0.04 0.27 0.138 1.206 1.206 0.029 0.542405 0.273212 
0.04 0.28 0.138 1.206 1.206 0.029 0.542405 0.273212 
0.04 0.29 0.138 1.206 1.206 0.029 0.542405 0.273212 
0.04 0.3 0.138 1.206 1.206 0.029 0.542405 0.273212 
0.04 0.31 0.138 1.206 1.206 0.029 0.542405 0.273212 
0.04 0.32 0.138 1.206 1.206 0.029 0.542405 0.273212 
0.04 0.33 0.138 1.206 1.206 0.029 0.542405 0.273212 
0.04 0.34 0.138 1.206 1.206 0.029 0.542405 0.273212 
0.04 0.35 0.138 1.206 1.206 0.029 0.542405 0.273212 
0.04 0.36 0.138 1.206 1.206 0.029 0.542405 0.273212 
0.04 0.37 0.138 1.206 1.206 0.029 0.542405 0.273212 
0.04 0.38 0.138 1.206 1.206 0.029 0.542405 0.273212 
0.04 0.39 0.138 1.206 1.206 0.029 0.542405 0.273212 
0.04 0.4 0.138 1.206 1.206 0.029 0.542405 0.273212 
0.04 0.41 0.138001 1.206 1.20599 0.0290003 0.542406 0.273213 
0.04 0.42 0.138018 1.206 1.20589 0.0290067 0.542432 0.273237 
0.04 0.43 0.13832 1.206 1.20401 0.0291298 0.542988 0.273671 
0.04 0.44 0.142794 1.206 1.17211 0.0314683 0.555451 0.280602 
0.04 0.45 0.193719 1.206 0.837672 0.0666377 0.693966 0.375436 
0.04 0.46 0.437212 1.206 0.134165 0.234233 0.866049 0.907467 
0.04 0.47 0.52878 1.206 0.00226473 0.297468 0.887456 1.12821 
0.04 0.48 0.53383 1.206 0.000873781 0.300856 0.888263 1.14035 
0.04 0.49 0.532252 1.206 -0.000795878 0.299864 0.888112 1.13672 
0.04 0.5 0.531407 1.206 -0.00243547 0.299205 0.88784 1.13446 
0.04 0.51 0.532285 1.206 -0.0016207 0.299812 0.888007 1.13662 
0.04 0.52 0.533376 1.206 -3.10392e-05 0.30068 0.888381 1.13958 
0.04 0.53 0.534102 1.206 0.000950591 0.301239 0.888602 1.14151 
0.04 0.54 0.53389 1.206 0.000130992 0.301034 0.888477 1.14084 
0.04 0.55 0.532135 1.206 -0.0022443 0.299747 0.888037 1.13635 
0.04 0.56 0.532033 1.206 -0.00260362 0.299629 0.887947 1.13598 
0.04 0.57 0.532901 1.206 -0.000881234 0.300301 0.888216 1.13829 
0.04 0.58 0.533205 1.206 4.53762e-05 0.300554 0.888338 1.13914 
0.04 0.59 0.532958 1.206 -0.00013805 0.300354 0.888248 1.13846 
0.04 0.6 0.532778 1.206 -0.000314998 0.3002 0.88817 1.13795 
0.04 0.61 0.532804 1.206 -0.000216934 0.30021 0.888163 1.13799 
0.04 0.62 0.532838 1.206 -0.000137124 0.300237 0.888175 1.13808 
0.04 0.63 0.532781 1.206 -0.000190551 0.300203 0.888172 1.13796 
0.04 0.64 0.532349 1.206 -0.000831091 0.299887 0.888064 1.13685 
0.04 0.65 0.531949 1.206 -0.0015284 0.299564 0.88792 1.13575 
0.04 0.66 0.532283 1.206 -0.00104684 0.299803 0.887996 1.13659 
0.04 0.67 0.532838 1.206 -4.54393e-05 0.30025 0.888194 1.13811 
0.04 0.68 0.533127 1.206 0.000550779 0.300484 0.888299 1.13891 
0.04 0.69 0.533052 1.206 0.000195453 0.30038 0.888208 1.1386 
0.04 0.7 0.532411 1.206 -0.000661463 0.299884 0.888009 1.13689 
0.04 0.71 0.53239 1.206 -0.000785095 0.299838 0.887959 1.13676 
0.04 0.72 0.532595 1.206 -0.000423899 0.299996 0.888022 1.1373 
0.04 0.73 0.532737 1.206 -0.000142432 0.30015 0.88813 1.13779 
0.04 0.74 0.532664 1.206 -8.48501e-05 0.300214 0.888286 1.1379 
0.04 0.75 0.53227 1.206 -8.69562e-05 0.300232 0.888641 1.13766 
0.04 0.76 0.530915 1.206 -6.61298e-05 0.300197 0.889722 1.13658 
0.04 0.77 0.528108 1.206 -0.000103517 0.300171 0.892046 1.13448 
0.04 0.78 0.525144 1.206 -0.000230982 0.300109 0.894467 1.13217 
0.04 0.79 0.523816 1.206 -0.00058523 0.299942 0.895351 1.13078 
0.04 0.8 0.524925 1.206 -0.000971223 0.29978 0.894164 1.13119 
0.04 0.81 0.52772 1.206 -0.000945256 0.299805 0.891829 1.13328 
0.04 0.82 0.530579 1.206 -0.0003622 0.30008 0.889831 1.13605 
0.04 0.83 0.531933 1.206 1.41797e-05 0.300243 0.888939 1.13744 
0.04 0.84 0.532367 1.206 9.35436e-05 0.300273 0.88862 1.13783 
0.04 0.85 0.53231 1.206 -0.000218675 0.300106 0.888421 1.13737 
0.04 0.86 0.53219 1.206 -0.000553116 0.29996 0.888305 1.13692 
0.04 0.87 0.532289 1.206 -0.00051647 0.300009 0.888296 1.13711 
0.04 0.88 0.53243 1.206 -0.000381798 0.300108 0.888324 1.13746 
0.04 0.89 0.532544 1.206 -0.000247689 0.300195 0.888359 1.13776 
0.04 0.9 0.532587 1.206 -0.000178774 0.300231 0.888375 1.13788 
0.04 0.91 0.532591 1.206 -0.00014664 0.300232 0.888373 1.13789 
0.04 0.92 0.532572 1.206 -0.000138359 0.300211 0.888359 1.13782 
0.04 0.93 0.532508 1.206 -0.000188896 0.30016 0.888336 1.13765 
0.04 0.94 0.532329 1.206 -0.000449742 0.300027 0.888289 1.13719 
0.04 0.95 0.532077 1.206 -0.000848736 0.299837 0.888217 1.13653 
0.04 0.96 0.532046 1.206 -0.00094933 0.299803 0.888193 1.13642 
0.04 0.97 0.532278 1.206 -0.000602739 0.299977 0.888256 1.13702 
0.04 0.98 0.532604 1.206 -0.000107348 0.300227 0.888355 1.13789 
0.04 0.99 0.532659 1.206 -1.36701e-05 0.300269 0.888372 1.13803 
0.04 1 0.532438 1.206 -0.000331599 0.3001 0.888305 1.13745 
0.05 0 0.138 1.206 1.206 0.029 0.542405 0.273212 
0.05 0.01 0.138 1.206 1.206 0.029 0.542405 0.273212 
0.05 0.02 0.138 1.206 1.206 0.029 0.542405 0.273212 
0.05 0.03 0.138 1.206 1.206 0.029 0.542405 0.273212 
0.05 0.04 0.138 1.206 1.206 0.029 0.542405 0.273212 