TITLE=DGSolution
VARIABLES=X Y rho u v pre c E 
ZONE T=TA, I=201, J=201, DATAPACKING = POINT
0 0 0.138 1.206 1.206 0.029 0.542405 0.273212 
0 0.005 0.138 1.206 1.206 0.029 0.542405 0.273212 
0 0.01 0.138 1.206 1.206 0.029 0.542405 0.273212 
0 0.015 0.138 1.206 1.206 0.029 0.542405 0.273212 
0 0.02 0.138 1.206 1.206 0.029 0.542405 0.273212 
0 0.025 0.138 1.206 1.206 0.029 0.542405 0.273212 
0 0.03 0.138 1.206 1.206 0.029 0.542405 0.273212 
0 0.035 0.138 1.206 1.206 0.029 0.542405 0.273212 
0 0.04 0.138 1.206 1.206 0.029 0.542405 0.273212 
0 0.045 0.138 1.206 1.206 0.029 0.542405 0.273212 
0 0.05 0.138 1.206 1.206 0.029 0.542405 0.273212 
0 0.055 0.138 1.206 1.206 0.029 0.542405 0.273212 
0 0.06 0.138 1.206 1.206 0.029 0.542405 0.273212 
0 0.065 0.138 1.206 1.206 0.029 0.542405 0.273212 
0 0.07 0.138 1.206 1.206 0.029 0.542405 0.273212 
0 0.075 0.138 1.206 1.206 0.029 0.542405 0.273212 
0 0.08 0.138 1.206 1.206 0.029 0.542405 0.273212 
0 0.085 0.138 1.206 1.206 0.029 0.542405 0.273212 
0 0.09 0.138 1.206 1.206 0.029 0.542405 0.273212 
0 0.095 0.138 1.206 1.206 0.029 0.542405 0.273212 
0 0.1 0.138 1.206 1.206 0.029 0.542405 0.273212 
0 0.105 0.138 1.206 1.206 0.029 0.542405 0.273212 
0 0.11 0.138 1.206 1.206 0.029 0.542405 0.273212 
0 0.115 0.138 1.206 1.206 0.029 0.542405 0.273212 
0 0.12 0.138 1.206 1.206 0.029 0.542405 0.273212 
0 0.125 0.138 1.206 1.206 0.029 0.542405 0.273212 
0 0.13 0.138 1.206 1.206 0.029 0.542405 0.273212 
0 0.135 0.138 1.206 1.206 0.029 0.542405 0.273212 
0 0.14 0.138 1.206 1.206 0.029 0.542405 0.273212 
0 0.145 0.138 1.206 1.206 0.029 0.542405 0.273212 
0 0.15 0.138 1.206 1.206 0.029 0.542405 0.273212 
0 0.155 0.138 1.206 1.206 0.029 0.542405 0.273212 
0 0.16 0.138 1.206 1.206 0.029 0.542405 0.273212 
0 0.165 0.138 1.206 1.206 0.029 0.542405 0.273212 
0 0.17 0.138 1.206 1.206 0.029 0.542405 0.273212 
0 0.175 0.138 1.206 1.206 0.029 0.542405 0.273212 
0 0.18 0.138 1.206 1.206 0.029 0.542405 0.273212 
0 0.185 0.138 1.206 1.206 0.029 0.542405 0.273212 
0 0.19 0.138 1.206 1.206 0.029 0.542405 0.273212 
0 0.195 0.138 1.206 1.206 0.029 0.542405 0.273212 
0 0.2 0.138 1.206 1.206 0.029 0.542405 0.273212 
0 0.205 0.138 1.206 1.206 0.029 0.542405 0.273212 
0 0.21 0.138 1.206 1.206 0.029 0.542405 0.273212 
0 0.215 0.138 1.206 1.206 0.029 0.542405 0.273212 
0 0.22 0.138 1.206 1.206 0.029 0.542405 0.273212 
0 0.225 0.138 1.206 1.206 0.029 0.542405 0.273212 
0 0.23 0.138 1.206 1.206 0.029 0.542405 0.273212 
0 0.235 0.138 1.206 1.206 0.029 0.542405 0.273212 
0 0.24 0.138 1.206 1.206 0.029 0.542405 0.273212 
0 0.245 0.138 1.206 1.206 0.029 0.542405 0.273212 
0 0.25 0.138 1.206 1.206 0.029 0.542405 0.273212 
0 0.255 0.138 1.206 1.206 0.029 0.542405 0.273212 
0 0.26 0.138 1.206 1.206 0.029 0.542405 0.273212 
0 0.265 0.138 1.206 1.206 0.029 0.542405 0.273212 
0 0.27 0.138 1.206 1.206 0.029 0.542405 0.273212 
0 0.275 0.138 1.206 1.206 0.029 0.542405 0.273212 
0 0.28 0.138 1.206 1.206 0.029 0.542405 0.273212 
0 0.285 0.138 1.206 1.206 0.029 0.542405 0.273212 
0 0.29 0.138 1.206 1.206 0.029 0.542405 0.273212 
0 0.295 0.138 1.206 1.206 0.029 0.542405 0.273212 
0 0.3 0.138 1.206 1.206 0.029 0.542405 0.273212 
0 0.305 0.138 1.206 1.206 0.029 0.542405 0.273212 
0 0.31 0.138 1.206 1.206 0.029 0.542405 0.273212 
0 0.315 0.138 1.206 1.206 0.029 0.542405 0.273212 
0 0.32 0.138 1.206 1.206 0.029 0.542405 0.273212 
0 0.325 0.138 1.206 1.206 0.029 0.542405 0.273212 
0 0.33 0.138 1.206 1.206 0.029 0.542405 0.273212 
0 0.335 0.138 1.206 1.206 0.029 0.542405 0.273212 
0 0.34 0.138 1.206 1.206 0.029 0.542405 0.273212 
0 0.345 0.138 1.206 1.206 0.029 0.542405 0.273212 
0 0.35 0.138 1.206 1.206 0.029 0.542405 0.273212 
0 0.355 0.138 1.206 1.206 0.029 0.542405 0.273212 
0 0.36 0.138 1.206 1.206 0.029 0.542405 0.273212 
0 0.365 0.138 1.206 1.206 0.029 0.542405 0.273212 
0 0.37 0.138 1.206 1.206 0.029 0.542405 0.273212 
0 0.375 0.138 1.206 1.206 0.029 0.542405 0.273212 
0 0.38 0.138 1.206 1.206 0.029 0.542405 0.273212 
0 0.385 0.138 1.206 1.206 0.029 0.542405 0.273212 
0 0.39 0.138 1.206 1.206 0.029 0.542405 0.273212 
0 0.395 0.138 1.206 1.206 0.029 0.542405 0.273212 
0 0.4 0.138 1.206 1.206 0.029 0.542405 0.273212 
0 0.405 0.138 1.206 1.206 0.029 0.542405 0.273212 
0 0.41 0.138 1.206 1.206 0.029 0.542405 0.273212 
0 0.415 0.138 1.206 1.206 0.029 0.542405 0.273212 
0 0.42 0.138 1.206 1.206 0.029 0.542405 0.273212 
0 0.425 0.138 1.206 1.206 0.029 0.542405 0.273212 
0 0.43 0.138 1.206 1.206 0.029 0.542405 0.273212 
0 0.435 0.138 1.206 1.206 0.0290002 0.542405 0.273213 
0 0.44 0.138009 1.206 1.20595 0.0290032 0.542418 0.273224 
0 0.445 0.138154 1.206 1.20504 0.0290613 0.542674 0.27343 
0 0.45 0.140398 1.206 1.18837 0.0301573 0.548378 0.27663 
0 0.455 0.168906 1.206 0.982605 0.0491933 0.638548 0.327356 
0 0.46 0.375998 1.206 0.244365 0.19294 0.847584 0.767009 
0 0.465 0.521737 1.206 0.00749278 0.292368 0.885734 1.11035 
0 0.47 0.532556 1.206 -0.000645819 0.300194 0.888347 1.13777 
0 0.475 0.533588 1.206 0.00164863 0.300896 0.888524 1.14028 
0 0.48 0.533914 1.206 0.00194565 0.301098 0.88855 1.14102 
0 0.485 0.532395 1.206 -0.000549698 0.299905 0.888053 1.13693 
0 0.49 0.531271 1.206 -0.00242038 0.299033 0.887699 1.13393 
0 0.495 0.532114 1.206 -0.0014566 0.29965 0.88791 1.13609 
0 0.5 0.532992 1.206 4.20075e-06 0.30038 0.888258 1.13855 
0 0.505 0.533316 1.206 0.000206329 0.30063 0.888357 1.13941 
0 0.51 0.533012 1.206 -0.000454394 0.300405 0.888278 1.13863 
0 0.515 0.532957 1.206 -0.000804505 0.300356 0.888252 1.13847 
0 0.52 0.533077 1.206 -0.000663786 0.300446 0.888284 1.13878 
0 0.525 0.533102 1.206 -0.000500461 0.300469 0.888298 1.13885 
0 0.53 0.532854 1.206 -0.000633581 0.300275 0.888218 1.13819 
0 0.535 0.532187 1.206 -0.00148266 0.299745 0.887989 1.13638 
0 0.54 0.531982 1.206 -0.00165008 0.299564 0.887892 1.13578 
0 0.545 0.532616 1.206 -0.000521579 0.300056 0.888093 1.13747 
0 0.55 0.532986 1.206 0.000499239 0.300409 0.888306 1.13862 
0 0.555 0.533206 1.206 0.000651811 0.300546 0.888325 1.13912 
0 0.56 0.532604 1.206 -0.000261222 0.300072 0.888125 1.1375 
0 0.565 0.532148 1.206 -0.000941554 0.29972 0.887985 1.13629 
0 0.57 0.532341 1.206 -0.00068044 0.299854 0.888022 1.13676 
0 0.575 0.532637 1.206 -0.00017776 0.300082 0.888114 1.13755 
0 0.58 0.532732 1.206 5.62267e-05 0.300172 0.888167 1.13784 
0 0.585 0.532726 1.206 7.13369e-05 0.300172 0.888172 1.13784 
0 0.59 0.532708 1.206 4.8547e-05 0.300157 0.888165 1.13779 
0 0.595 0.532685 1.206 5.71361e-06 0.300135 0.888152 1.13772 
0 0.6 0.532637 1.206 -7.86805e-05 0.300093 0.88813 1.13758 
0 0.605 0.532474 1.206 -0.000351383 0.299965 0.888076 1.13714 
0 0.61 0.532189 1.206 -0.000814543 0.299745 0.887989 1.13638 
0 0.615 0.532136 1.206 -0.000920898 0.299702 0.887969 1.13623 
0 0.62 0.532443 1.206 -0.000441394 0.299938 0.888061 1.13705 
0 0.625 0.532705 1.206 5.91395e-05 0.300155 0.888165 1.13778 
0 0.63 0.532843 1.206 0.000274087 0.300258 0.888203 1.13814 
0 0.635 0.532722 1.206 7.97276e-06 0.300151 0.888145 1.13778 
0 0.64 0.532409 1.206 -0.000418034 0.299916 0.888058 1.13697 
0 0.645 0.532404 1.206 -0.000476329 0.299906 0.888048 1.13694 
0 0.65 0.532519 1.206 -0.000272943 0.299999 0.888089 1.13725 
0 0.655 0.532651 1.206 -5.62738e-05 0.300104 0.888134 1.13761 
0 0.66 0.532697 1.206 3.8001e-05 0.300143 0.888153 1.13774 
0 0.665 0.532713 1.206 5.94586e-05 0.300154 0.888156 1.13778 
0 0.67 0.532714 1.206 5.21155e-05 0.300152 0.888153 1.13778 
0 0.675 0.532679 1.206 -1.39448e-05 0.300125 0.888142 1.13769 
0 0.68 0.532507 1.206 -0.000289185 0.299995 0.888093 1.13724 
0 0.685 0.532297 1.206 -0.000685635 0.299826 0.888019 1.13666 
0 0.69 0.532204 1.206 -0.000853923 0.299754 0.887988 1.13641 
0 0.695 0.53235 1.206 -0.000614453 0.299867 0.888035 1.1368 
0 0.7 0.532637 1.206 -0.00016231 0.300086 0.888119 1.13756 
0 0.705 0.532751 1.206 0.000104264 0.300183 0.888167 1.13788 
0 0.71 0.532713 1.206 2.28009e-05 0.300147 0.888146 1.13777 
0 0.715 0.532554 1.206 -0.000197697 0.300024 0.888096 1.13734 
0 0.72 0.532467 1.206 -0.000369319 0.299951 0.888061 1.1371 
0 0.725 0.532517 1.206 -0.00032407 0.299987 0.888073 1.13722 
0 0.73 0.532619 1.206 -0.00018605 0.300066 0.888104 1.13749 
0 0.735 0.532711 1.206 -5.0744e-05 0.300132 0.888125 1.13773 
0 0.74 0.532739 1.206 3.16464e-05 0.300151 0.88813 1.13779 
0 0.745 0.532737 1.206 6.41442e-05 0.300149 0.888129 1.13779 
0 0.75 0.532726 1.206 3.2914e-05 0.300139 0.888123 1.13776 
0 0.755 0.532601 1.206 -0.000147412 0.300062 0.888113 1.13747 
0 0.76 0.532338 1.206 -0.000548388 0.299898 0.88809 1.13687 
0 0.765 0.532108 1.206 -0.000828201 0.299779 0.888106 1.13641 
0 0.77 0.532017 1.206 -0.0006898 0.299863 0.888306 1.13655 
0 0.775 0.531646 1.206 -0.000359473 0.300027 0.888858 1.13669 
0 0.78 0.530344 1.206 -7.14409e-05 0.300136 0.890111 1.13602 
0 0.785 0.528122 1.206 -9.83375e-06 0.300149 0.892001 1.13443 
0 0.79 0.525975 1.206 -0.000120214 0.300081 0.893719 1.1327 
0 0.795 0.525069 1.206 -0.000262418 0.300016 0.894392 1.13188 
0 0.8 0.525849 1.206 -0.000350191 0.299987 0.893686 1.13237 
0 0.805 0.527879 1.206 -0.000283724 0.300028 0.892027 1.13395 
0 0.81 0.530087 1.206 -0.000130029 0.3001 0.890273 1.13574 
0 0.815 0.531499 1.206 -5.52049e-05 0.300129 0.889133 1.13684 
0 0.82 0.532074 1.206 3.88807e-06 0.300157 0.888694 1.13733 
0 0.825 0.532291 1.206 7.17056e-06 0.300163 0.888521 1.1375 
0 0.83 0.532338 1.206 -8.31277e-05 0.300121 0.88842 1.13743 
0 0.835 0.532208 1.206 -0.0003978 0.299977 0.888315 1.13697 
0 0.84 0.532083 1.206 -0.000684243 0.299853 0.888237 1.13657 
0 0.845 0.532087 1.206 -0.000730656 0.299844 0.888219 1.13655 
0 0.85 0.53222 1.206 -0.000545707 0.299942 0.888254 1.1369 
0 0.855 0.532404 1.206 -0.000256469 0.300083 0.88831 1.13738 
0 0.86 0.532479 1.206 -9.96182e-05 0.300143 0.888336 1.13759 
0 0.865 0.532434 1.206 -0.000131725 0.300109 0.888323 1.13747 
0 0.87 0.532363 1.206 -0.000216225 0.300054 0.8883 1.13728 
0 0.875 0.53232 1.206 -0.00028131 0.300018 0.888283 1.13716 
0 0.88 0.532337 1.206 -0.000266372 0.300029 0.888285 1.1372 
0 0.885 0.532391 1.206 -0.000191293 0.300071 0.888303 1.13734 
0 0.89 0.53245 1.206 -0.000103169 0.300118 0.888323 1.1375 
0 0.895 0.532493 1.206 -3.77263e-05 0.300152 0.888337 1.13762 
0 0.9 0.53251 1.206 -1.26297e-05 0.300164 0.888342 1.13766 
0 0.905 0.532486 1.206 -5.81809e-05 0.300146 0.888334 1.1376 
0 0.91 0.532373 1.206 -0.00025066 0.300059 0.888299 1.1373 
0 0.915 0.532212 1.206 -0.000533096 0.299934 0.888248 1.13687 
0 0.92 0.532124 1.206 -0.000707707 0.299864 0.888219 1.13663 
0 0.925 0.532192 1.206 -0.000630477 0.299915 0.888238 1.13681 
0 0.93 0.532355 1.206 -0.000382395 0.30004 0.888286 1.13724 
0 0.935 0.532446 1.206 -0.000208866 0.30011 0.888314 1.13748 
0 0.94 0.532431 1.206 -0.000185114 0.300099 0.888311 1.13744 
0 0.945 0.532387 1.206 -0.000206734 0.300067 0.8883 1.13733 
0 0.95 0.532345 1.206 -0.000249456 0.300038 0.888291 1.13722 
0 0.955 0.532333 1.206 -0.000268534 0.300029 0.888289 1.13719 
0 0.96 0.532366 1.206 -0.000237203 0.300053 0.888296 1.13728 
0 0.965 0.532426 1.206 -0.000165456 0.300095 0.888309 1.13743 
0 0.97 0.532482 1.206 -8.9428e-05 0.300137 0.888324 1.13757 
0 0.975 0.532513 1.206 -3.89693e-05 0.300163 0.888336 1.13766 
0 0.98 0.532504 1.206 -3.51586e-05 0.30016 0.888339 1.13765 
0 0.985 0.532432 1.206 -0.000146133 0.300107 0.888321 1.13746 
0 0.99 0.532291 1.206 -0.000388476 0.299995 0.888272 1.13708 
0 0.995 0.532164 1.206 -0.000630642 0.299893 0.888229 1.13673 
0 1 0.532302 1.206 -0.000533386 0.29998 0.888242 1.13705 
0.005 0 0.138 1.206 1.206 0.029 0.542405 0.273212 
0.005 0.005 0.138 1.206 1.206 0.029 0.542405 0.273212 
0.005 0.01 0.138 1.206 1.206 0.029 0.542405 0.273212 
0.005 0.015 0.138 1.206 1.206 0.029 0.542405 0.273212 
0.005 0.02 0.138 1.206 1.206 0.029 0.542405 0.273212 
0.005 0.025 0.138 1.206 1.206 0.029 0.542405 0.273212 
0.005 0.03 0.138 1.206 1.206 0.029 0.542405 0.273212 
0.005 0.035 0.138 1.206 1.206 0.029 0.542405 0.273212 
0.005 0.04 0.138 1.206 1.206 0.029 0.542405 0.273212 
0.005 0.045 0.138 1.206 1.206 0.029 0.542405 0.273212 
0.005 0.05 0.138 1.206 1.206 0.029 0.542405 0.273212 
0.005 0.055 0.138 1.206 1.206 0.029 0.542405 0.273212 
0.005 0.06 0.138 1.206 1.206 0.029 0.542405 0.273212 
0.005 0.065 0.138 1.206 1.206 0.029 0.542405 0.273212 
0.005 0.07 0.138 1.206 1.206 0.029 0.542405 0.273212 
0.005 0.075 0.138 1.206 1.206 0.029 0.542405 0.273212 
0.005 0.08 0.138 1.206 1.206 0.029 0.542405 0.273212 
0.005 0.085 0.138 1.206 1.206 0.029 0.542405 0.273212 
0.005 0.09 0.138 1.206 1.206 0.029 0.542405 0.273212 
0.005 0.095 0.138 1.206 1.206 0.029 0.542405 0.273212 
0.005 0.1 0.138 1.206 1.206 0.029 0.542405 0.273212 
0.005 0.105 0.138 1.206 1.206 0.029 0.542405 0.273212 
0.005 0.11 0.138 1.206 1.206 0.029 0.542405 0.273212 
0.005 0.115 0.138 1.206 1.206 0.029 0.542405 0.273212 
0.005 0.12 0.138 1.206 1.206 0.029 0.542405 0.273212 
0.005 0.125 0.138 1.206 1.206 0.029 0.542405 0.273212 
0.005 0.13 0.138 1.206 1.206 0.029 0.542405 0.273212 
0.005 0.135 0.138 1.206 1.206 0.029 0.542405 0.273212 
0.005 0.14 0.138 1.206 1.206 0.029 0.542405 0.273212 
0.005 0.145 0.138 1.206 1.206 0.029 0.542405 0.273212 
0.005 0.15 0.138 1.206 1.206 0.029 0.542405 0.273212 
0.005 0.155 0.138 1.206 1.206 0.029 0.542405 0.273212 
0.005 0.16 0.138 1.206 1.206 0.029 0.542405 0.273212 
0.005 0.165 0.138 1.206 1.206 0.029 0.542405 0.273212 
0.005 0.17 0.138 1.206 1.206 0.029 0.542405 0.273212 
0.005 0.175 0.138 1.206 1.206 0.029 0.542405 0.273212 
0.005 0.18 0.138 1.206 1.206 0.029 0.542405 0.273212 
0.005 0.185 0.138 1.206 1.206 0.029 0.542405 0.273212 
0.005 0.19 0.138 1.206 1.206 0.029 0.542405 0.273212 
0.005 0.195 0.138 1.206 1.206 0.029 0.542405 0.273212 
0.005 0.2 0.138 1.206 1.206 0.029 0.542405 0.273212 
0.005 0.205 0.138 1.206 1.206 0.029 0.542405 0.273212 
0.005 0.21 0.138 1.206 1.206 0.029 0.542405 0.273212 
0.005 0.215 0.138 1.206 1.206 0.029 0.542405 0.273212 
0.005 0.22 0.138 1.206 1.206 0.029 0.542405 0.273212 
0.005 0.225 0.138 1.206 1.206 0.029 0.542405 0.273212 
0.005 0.23 0.138 1.206 1.206 0.029 0.542405 0.273212 
0.005 0.235 0.138 1.206 1.206 0.029 0.542405 0.273212 
0.005 0.24 0.138 1.206 1.206 0.029 0.542405 0.273212 
0.005 0.245 0.138 1.206 1.206 0.029 0.542405 0.273212 
0.005 0.25 0.138 1.206 1.206 0.029 0.542405 0.273212 
0.005 0.255 0.138 1.206 1.206 0.029 0.542405 0.273212 
0.005 0.26 0.138 1.206 1.206 0.029 0.542405 0.273212 
0.005 0.265 0.138 1.206 1.206 0.029 0.542405 0.273212 
0.005 0.27 0.138 1.206 1.206 0.029 0.542405 0.273212 
0.005 0.275 0.138 1.206 1.206 0.029 0.542405 0.273212 
0.005 0.28 0.138 1.206 1.206 0.029 0.542405 0.273212 
0.005 0.285 0.138 1.206 1.206 0.029 0.542405 0.273212 
0.005 0.29 0.138 1.206 1.206 0.029 0.542405 0.273212 
0.005 0.295 0.138 1.206 1.206 0.029 0.542405 0.273212 
0.005 0.3 0.138 1.206 1.206 0.029 0.542405 0.273212 
0.005 0.305 0.138 1.206 1.206 0.029 0.542405 0.273212 
0.005 0.31 0.138 1.206 1.206 0.029 0.542405 0.273212 
0.005 0.315 0.138 1.206 1.206 0.029 0.542405 0.273212 
0.005 0.32 0.138 1.206 1.206 0.029 0.542405 0.273212 
0.005 0.325 0.138 1.206 1.206 0.029 0.542405 0.273212 
0.005 0.33 0.138 1.206 1.206 0.029 0.542405 0.273212 
0.005 0.335 0.138 1.206 1.206 0.029 0.542405 0.273212 
0.005 0.34 0.138 1.206 1.206 0.029 0.542405 0.273212 
0.005 0.345 0.138 1.206 1.206 0.029 0.542405 0.273212 
0.005 0.35 0.138 1.206 1.206 0.029 0.542405 0.273212 
0.005 0.355 0.138 1.206 1.206 0.029 0.542405 0.273212 
0.005 0.36 0.138 1.206 1.206 0.029 0.542405 0.273212 
0.005 0.365 0.138 1.206 1.206 0.029 0.542405 0.273212 
0.005 0.37 0.138 1.206 1.206 0.029 0.542405 0.273212 
0.005 0.375 0.138 1.206 1.206 0.029 0.542405 0.273212 
0.005 0.38 0.138 1.206 1.206 0.029 0.542405 0.273212 
0.005 0.385 0.138 1.206 1.206 0.029 0.542405 0.273212 
0.005 0.39 0.138 1.206 1.206 0.029 0.542405 0.273212 
0.005 0.395 0.138 1.206 1.206 0.029 0.542405 0.273212 
0.005 0.4 0.138 1.206 1.206 0.029 0.542405 0.273212 
0.005 0.405 0.138 1.206 1.206 0.029 0.542405 0.273212 
0.005 0.41 0.138 1.206 1.206 0.029 0.542405 0.273212 
0.005 0.415 0.138 1.206 1.206 0.029 0.542405 0.273212 
0.005 0.42 0.138 1.206 1.206 0.029 0.542405 0.273212 
0.005 0.425 0.138 1.206 1.206 0.029 0.542405 0.273212 
0.005 0.43 0.138 1.206 1.206 0.029 0.542405 0.273212 
0.005 0.435 0.138 1.206 1.206 0.0290002 0.542405 0.273213 
0.005 0.44 0.138009 1.206 1.20595 0.0290032 0.542418 0.273224 
0.005 0.445 0.138154 1.206 1.20504 0.0290613 0.542674 0.27343 
0.005 0.45 0.140398 1.206 1.18837 0.0301573 0.548378 0.27663 
0.005 0.455 0.168906 1.206 0.982605 0.0491933 0.638548 0.327356 
0.005 0.46 0.375998 1.206 0.244365 0.19294 0.847584 0.767009 
0.005 0.465 0.521737 1.206 0.00749278 0.292368 0.885734 1.11035 
0.005 0.47 0.532556 1.206 -0.000645819 0.300194 0.888347 1.13777 
0.005 0.475 0.533588 1.206 0.00164863 0.300896 0.888524 1.14028 
0.005 0.48 0.533914 1.206 0.00194565 0.301098 0.88855 1.14102 
0.005 0.485 0.532395 1.206 -0.000549698 0.299905 0.888053 1.13693 
0.005 0.49 0.531271 1.206 -0.00242038 0.299033 0.887699 1.13393 
0.005 0.495 0.532114 1.206 -0.0014566 0.29965 0.88791 1.13609 
0.005 0.5 0.532992 1.206 4.20075e-06 0.30038 0.888258 1.13855 
0.005 0.505 0.533316 1.206 0.000206329 0.30063 0.888357 1.13941 
0.005 0.51 0.533012 1.206 -0.000454394 0.300405 0.888278 1.13863 
0.005 0.515 0.532957 1.206 -0.000804505 0.300356 0.888252 1.13847 
0.005 0.52 0.533077 1.206 -0.000663786 0.300446 0.888284 1.13878 
0.005 0.525 0.533102 1.206 -0.000500461 0.300469 0.888298 1.13885 
0.005 0.53 0.532854 1.206 -0.000633581 0.300275 0.888218 1.13819 
0.005 0.535 0.532187 1.206 -0.00148266 0.299745 0.887989 1.13638 
0.005 0.54 0.531982 1.206 -0.00165008 0.299564 0.887892 1.13578 
0.005 0.545 0.532616 1.206 -0.000521579 0.300056 0.888093 1.13747 
0.005 0.55 0.532986 1.206 0.000499239 0.300409 0.888306 1.13862 
0.005 0.555 0.533206 1.206 0.000651811 0.300546 0.888325 1.13912 
0.005 0.56 0.532604 1.206 -0.000261222 0.300072 0.888125 1.1375 
0.005 0.565 0.532148 1.206 -0.000941554 0.29972 0.887985 1.13629 
0.005 0.57 0.532341 1.206 -0.00068044 0.299854 0.888022 1.13676 
0.005 0.575 0.532637 1.206 -0.00017776 0.300082 0.888114 1.13755 
0.005 0.58 0.532732 1.206 5.62267e-05 0.300172 0.888167 1.13784 
0.005 0.585 0.532726 1.206 7.13369e-05 0.300172 0.888172 1.13784 
0.005 0.59 0.532708 1.206 4.8547e-05 0.300157 0.888165 1.13779 
0.005 0.595 0.532685 1.206 5.71361e-06 0.300135 0.888152 1.13772 
0.005 0.6 0.532637 1.206 -7.86805e-05 0.300093 0.88813 1.13758 
0.005 0.605 0.532474 1.206 -0.000351383 0.299965 0.888076 1.13714 
0.005 0.61 0.532189 1.206 -0.000814543 0.299745 0.887989 1.13638 
0.005 0.615 0.532136 1.206 -0.000920898 0.299702 0.887969 1.13623 
0.005 0.62 0.532443 1.206 -0.000441394 0.299938 0.888061 1.13705 
0.005 0.625 0.532705 1.206 5.91395e-05 0.300155 0.888165 1.13778 
0.005 0.63 0.532843 1.206 0.000274087 0.300258 0.888203 1.13814 
0.005 0.635 0.532722 1.206 7.97276e-06 0.300151 0.888145 1.13778 
0.005 0.64 0.532409 1.206 -0.000418034 0.299916 0.888058 1.13697 
0.005 0.645 0.532404 1.206 -0.000476329 0.299906 0.888048 1.13694 
0.005 0.65 0.532519 1.206 -0.000272943 0.299999 0.888089 1.13725 
0.005 0.655 0.532651 1.206 -5.62738e-05 0.300104 0.888134 1.13761 
0.005 0.66 0.532697 1.206 3.8001e-05 0.300143 0.888153 1.13774 
0.005 0.665 0.532713 1.206 5.94586e-05 0.300154 0.888156 1.13778 
0.005 0.67 0.532714 1.206 5.21155e-05 0.300152 0.888153 1.13778 
0.005 0.675 0.532679 1.206 -1.39448e-05 0.300125 0.888142 1.13769 
0.005 0.68 0.532507 1.206 -0.000289185 0.299995 0.888093 1.13724 
0.005 0.685 0.532297 1.206 -0.000685635 0.299826 0.888019 1.13666 
0.005 0.69 0.532204 1.206 -0.000853923 0.299754 0.887988 1.13641 
0.005 0.695 0.53235 1.206 -0.000614453 0.299867 0.888035 1.1368 
0.005 0.7 0.532637 1.206 -0.00016231 0.300086 0.888119 1.13756 
0.005 0.705 0.532751 1.206 0.000104264 0.300183 0.888167 1.13788 
0.005 0.71 0.532713 1.206 2.28009e-05 0.300147 0.888146 1.13777 
0.005 0.715 0.532554 1.206 -0.000197697 0.300024 0.888096 1.13734 
0.005 0.72 0.532467 1.206 -0.000369319 0.299951 0.888061 1.1371 
0.005 0.725 0.532517 1.206 -0.00032407 0.299987 0.888073 1.13722 
0.005 0.73 0.532619 1.206 -0.00018605 0.300066 0.888104 1.13749 
0.005 0.735 0.532711 1.206 -5.0744e-05 0.300132 0.888125 1.13773 
0.005 0.74 0.532739 1.206 3.16464e-05 0.300151 0.88813 1.13779 
0.005 0.745 0.532737 1.206 6.41442e-05 0.300149 0.888129 1.13779 
0.005 0.75 0.532726 1.206 3.2914e-05 0.300139 0.888123 1.13776 
0.005 0.755 0.532601 1.206 -0.000147412 0.300062 0.888113 1.13747 
0.005 0.76 0.532338 1.206 -0.000548388 0.299898 0.88809 1.13687 
0.005 0.765 0.532108 1.206 -0.000828201 0.299779 0.888106 1.13641 
0.005 0.77 0.532017 1.206 -0.0006898 0.299863 0.888306 1.13655 
0.005 0.775 0.531646 1.206 -0.000359473 0.300027 0.888858 1.13669 
0.005 0.78 0.530344 1.206 -7.14409e-05 0.300136 0.890111 1.13602 
0.005 0.785 0.528122 1.206 -9.83375e-06 0.300149 0.892001 1.13443 
0.005 0.79 0.525975 1.206 -0.000120214 0.300081 0.893719 1.1327 
0.005 0.795 0.525069 1.206 -0.000262418 0.300016 0.894392 1.13188 
0.005 0.8 0.525849 1.206 -0.000350191 0.299987 0.893686 1.13237 
0.005 0.805 0.527879 1.206 -0.000283724 0.300028 0.892027 1.13395 
0.005 0.81 0.530087 1.206 -0.000130029 0.3001 0.890273 1.13574 
0.005 0.815 0.531499 1.206 -5.52049e-05 0.300129 0.889133 1.13684 
0.005 0.82 0.532074 1.206 3.88807e-06 0.300157 0.888694 1.13733 
0.005 0.825 0.532291 1.206 7.17056e-06 0.300163 0.888521 1.1375 
0.005 0.83 0.532338 1.206 -8.31277e-05 0.300121 0.88842 1.13743 
0.005 0.835 0.532208 1.206 -0.0003978 0.299977 0.888315 1.13697 
0.005 0.84 0.532083 1.206 -0.000684243 0.299853 0.888237 1.13657 
0.005 0.845 0.532087 1.206 -0.000730656 0.299844 0.888219 1.13655 
0.005 0.85 0.53222 1.206 -0.000545707 0.299942 0.888254 1.1369 
0.005 0.855 0.532404 1.206 -0.000256469 0.300083 0.88831 1.13738 
0.005 0.86 0.532479 1.206 -9.96182e-05 0.300143 0.888336 1.13759 
0.005 0.865 0.532434 1.206 -0.000131725 0.300109 0.888323 1.13747 
0.005 0.87 0.532363 1.206 -0.000216225 0.300054 0.8883 1.13728 
0.005 0.875 0.53232 1.206 -0.00028131 0.300018 0.888283 1.13716 
0.005 0.88 0.532337 1.206 -0.000266372 0.300029 0.888285 1.1372 
0.005 0.885 0.532391 1.206 -0.000191293 0.300071 0.888303 1.13734 
0.005 0.89 0.53245 1.206 -0.000103169 0.300118 0.888323 1.1375 
0.005 0.895 0.532493 1.206 -3.77263e-05 0.300152 0.888337 1.13762 
0.005 0.9 0.53251 1.206 -1.26297e-05 0.300164 0.888342 1.13766 
0.005 0.905 0.532486 1.206 -5.81809e-05 0.300146 0.888334 1.1376 
0.005 0.91 0.532373 1.206 -0.00025066 0.300059 0.888299 1.1373 
0.005 0.915 0.532212 1.206 -0.000533096 0.299934 0.888248 1.13687 
0.005 0.92 0.532124 1.206 -0.000707707 0.299864 0.888219 1.13663 
0.005 0.925 0.532192 1.206 -0.000630477 0.299915 0.888238 1.13681 
0.005 0.93 0.532355 1.206 -0.000382395 0.30004 0.888286 1.13724 
0.005 0.935 0.532446 1.206 -0.000208866 0.30011 0.888314 1.13748 
0.005 0.94 0.532431 1.206 -0.000185114 0.300099 0.888311 1.13744 
0.005 0.945 0.532387 1.206 -0.000206734 0.300067 0.8883 1.13733 
0.005 0.95 0.532345 1.206 -0.000249456 0.300038 0.888291 1.13722 
0.005 0.955 0.532333 1.206 -0.000268534 0.300029 0.888289 1.13719 
0.005 0.96 0.532366 1.206 -0.000237203 0.300053 0.888296 1.13728 
0.005 0.965 0.532426 1.206 -0.000165456 0.300095 0.888309 1.13743 
0.005 0.97 0.532482 1.206 -8.9428e-05 0.300137 0.888324 1.13757 
0.005 0.975 0.532513 1.206 -3.89693e-05 0.300163 0.888336 1.13766 
0.005 0.98 0.532504 1.206 -3.51586e-05 0.30016 0.888339 1.13765 
0.005 0.985 0.532432 1.206 -0.000146133 0.300107 0.888321 1.13746 
0.005 0.99 0.532291 1.206 -0.000388476 0.299995 0.888272 1.13708 
0.005 0.995 0.532164 1.206 -0.000630642 0.299893 0.888229 1.13673 
0.005 1 0.532302 1.206 -0.000533386 0.29998 0.888242 1.13705 
0.01 0 0.138 1.206 1.206 0.029 0.542405 0.273212 
0.01 0.005 0.138 1.206 1.206 0.029 0.542405 0.273212 
0.01 0.01 0.138 1.206 1.206 0.029 0.542405 0.273212 
0.01 0.015 0.138 1.206 1.206 0.029 0.542405 0.273212 
0.01 0.02 0.138 1.206 1.206 0.029 0.542405 0.273212 
0.01 0.025 0.138 1.206 1.206 0.029 0.542405 0.273212 
0.01 0.03 0.138 1.206 1.206 0.029 0.542405 0.273212 
0.01 0.035 0.138 1.206 1.206 0.029 0.542405 0.273212 
0.01 0.04 0.138 1.206 1.206 0.029 0.542405 0.273212 
0.01 0.045 0.138 1.206 1.206 0.029 0.542405 0.273212 
0.01 0.05 0.138 1.206 1.206 0.029 0.542405 0.273212 
0.01 0.055 0.138 1.206 1.206 0.029 0.542405 0.273212 
0.01 0.06 0.138 1.206 1.206 0.029 0.542405 0.273212 
0.01 0.065 0.138 1.206 1.206 0.029 0.542405 0.273212 
0.01 0.07 0.138 1.206 1.206 0.029 0.542405 0.273212 
0.01 0.075 0.138 1.206 1.206 0.029 0.542405 0.273212 
0.01 0.08 0.138 1.206 1.206 0.029 0.542405 0.273212 
0.01 0.085 0.138 1.206 1.206 0.029 0.542405 0.273212 
0.01 0.09 0.138 1.206 1.206 0.029 0.542405 0.273212 
0.01 0.095 0.138 1.206 1.206 0.029 0.542405 0.273212 
0.01 0.1 0.138 1.206 1.206 0.029 0.542405 0.273212 
0.01 0.105 0.138 1.206 1.206 0.029 0.542405 0.273212 
0.01 0.11 0.138 1.206 1.206 0.029 0.542405 0.273212 
0.01 0.115 0.138 1.206 1.206 0.029 0.542405 0.273212 
0.01 0.12 0.138 1.206 1.206 0.029 0.542405 0.273212 
0.01 0.125 0.138 1.206 1.206 0.029 0.542405 0.273212 
0.01 0.13 0.138 1.206 1.206 0.029 0.542405 0.273212 
0.01 0.135 0.138 1.206 1.206 0.029 0.542405 0.273212 
0.01 0.14 0.138 1.206 1.206 0.029 0.542405 0.273212 
0.01 0.145 0.138 1.206 1.206 0.029 0.542405 0.273212 
0.01 0.15 0.138 1.206 1.206 0.029 0.542405 0.273212 
0.01 0.155 0.138 1.206 1.206 0.029 0.542405 0.273212 
0.01 0.16 0.138 1.206 1.206 0.029 0.542405 0.273212 
0.01 0.165 0.138 1.206 1.206 0.029 0.542405 0.273212 
0.01 0.17 0.138 1.206 1.206 0.029 0.542405 0.273212 
0.01 0.175 0.138 1.206 1.206 0.029 0.542405 0.273212 
0.01 0.18 0.138 1.206 1.206 0.029 0.542405 0.273212 
0.01 0.185 0.138 1.206 1.206 0.029 0.542405 0.273212 
0.01 0.19 0.138 1.206 1.206 0.029 0.542405 0.273212 
0.01 0.195 0.138 1.206 1.206 0.029 0.542405 0.273212 
0.01 0.2 0.138 1.206 1.206 0.029 0.542405 0.273212 
0.01 0.205 0.138 1.206 1.206 0.029 0.542405 0.273212 
0.01 0.21 0.138 1.206 1.206 0.029 0.542405 0.273212 
0.01 0.215 0.138 1.206 1.206 0.029 0.542405 0.273212 
0.01 0.22 0.138 1.206 1.206 0.029 0.542405 0.273212 
0.01 0.225 0.138 1.206 1.206 0.029 0.542405 0.273212 
0.01 0.23 0.138 1.206 1.206 0.029 0.542405 0.273212 
0.01 0.235 0.138 1.206 1.206 0.029 0.542405 0.273212 
0.01 0.24 0.138 1.206 1.206 0.029 0.542405 0.273212 
0.01 0.245 0.138 1.206 1.206 0.029 0.542405 0.273212 
0.01 0.25 0.138 1.206 1.206 0.029 0.542405 0.273212 
0.01 0.255 0.138 1.206 1.206 0.029 0.542405 0.273212 
0.01 0.26 0.138 1.206 1.206 0.029 0.542405 0.273212 
0.01 0.265 0.138 1.206 1.206 0.029 0.542405 0.273212 
0.01 0.27 0.138 1.206 1.206 0.029 0.542405 0.273212 
0.01 0.275 0.138 1.206 1.206 0.029 0.542405 0.273212 
0.01 0.28 0.138 1.206 1.206 0.029 0.542405 0.273212 
0.01 0.285 0.138 1.206 1.206 0.029 0.542405 0.273212 
0.01 0.29 0.138 1.206 1.206 0.029 0.542405 0.273212 
0.01 0.295 0.138 1.206 1.206 0.029 0.542405 0.273212 
0.01 0.3 0.138 1.206 1.206 0.029 0.542405 0.273212 
0.01 0.305 0.138 1.206 1.206 0.029 0.542405 0.273212 
0.01 0.31 0.138 1.206 1.206 0.029 0.542405 0.273212 
0.01 0.315 0.138 1.206 1.206 0.029 0.542405 0.273212 
0.01 0.32 0.138 1.206 1.206 0.029 0.542405 0.273212 
0.01 0.325 0.138 1.206 1.206 0.029 0.542405 0.273212 
0.01 0.33 0.138 1.206 1.206 0.029 0.542405 0.273212 
0.01 0.335 0.138 1.206 1.206 0.029 0.542405 0.273212 
0.01 0.34 0.138 1.206 1.206 0.029 0.542405 0.273212 
0.01 0.345 0.138 1.206 1.206 0.029 0.542405 0.273212 
0.01 0.35 0.138 1.206 1.206 0.029 0.542405 0.273212 
0.01 0.355 0.138 1.206 1.206 0.029 0.542405 0.273212 
0.01 0.36 0.138 1.206 1.206 0.029 0.542405 0.273212 
0.01 0.365 0.138 1.206 1.206 0.029 0.542405 0.273212 
0.01 0.37 0.138 1.206 1.206 0.029 0.542405 0.273212 
0.01 0.375 0.138 1.206 1.206 0.029 0.542405 0.273212 
0.01 0.38 0.138 1.206 1.206 0.029 0.542405 0.273212 
0.01 0.385 0.138 1.206 1.206 0.029 0.542405 0.273212 
0.01 0.39 0.138 1.206 1.206 0.029 0.542405 0.273212 
0.01 0.395 0.138 1.206 1.206 0.029 0.542405 0.273212 
0.01 0.4 0.138 1.206 1.206 0.029 0.542405 0.273212 
0.01 0.405 0.138 1.206 1.206 0.029 0.542405 0.273212 
0.01 0.41 0.138 1.206 1.206 0.029 0.542405 0.273212 
0.01 0.415 0.138 1.206 1.206 0.029 0.542405 0.273212 
0.01 0.42 0.138 1.206 1.206 0.029 0.542405 0.273212 
0.01 0.425 0.138 1.206 1.206 0.029 0.542405 0.273212 
0.01 0.43 0.138 1.206 1.206 0.029 0.542405 0.273212 
0.01 0.435 0.138 1.206 1.206 0.0290002 0.542405 0.273213 
0.01 0.44 0.138009 1.206 1.20595 0.0290032 0.542418 0.273224 
0.01 0.445 0.138154 1.206 1.20504 0.0290613 0.542674 0.27343 
0.01 0.45 0.140398 1.206 1.18837 0.0301573 0.548378 0.27663 
0.01 0.455 0.168906 1.206 0.982605 0.0491933 0.638548 0.327356 
0.01 0.46 0.375998 1.206 0.244365 0.19294 0.847584 0.767009 
0.01 0.465 0.521737 1.206 0.00749278 0.292368 0.885734 1.11035 
0.01 0.47 0.532556 1.206 -0.000645819 0.300194 0.888347 1.13777 
0.01 0.475 0.533588 1.206 0.00164863 0.300896 0.888524 1.14028 
0.01 0.48 0.533914 1.206 0.00194565 0.301098 0.88855 1.14102 
0.01 0.485 0.532395 1.206 -0.000549698 0.299905 0.888053 1.13693 
0.01 0.49 0.531271 1.206 -0.00242038 0.299033 0.887699 1.13393 
0.01 0.495 0.532114 1.206 -0.0014566 0.29965 0.88791 1.13609 
0.01 0.5 0.532992 1.206 4.20075e-06 0.30038 0.888258 1.13855 
0.01 0.505 0.533316 1.206 0.000206329 0.30063 0.888357 1.13941 
0.01 0.51 0.533012 1.206 -0.000454394 0.300405 0.888278 1.13863 
0.01 0.515 0.532957 1.206 -0.000804505 0.300356 0.888252 1.13847 
0.01 0.52 0.533077 1.206 -0.000663786 0.300446 0.888284 1.13878 
0.01 0.525 0.533102 1.206 -0.000500461 0.300469 0.888298 1.13885 
0.01 0.53 0.532854 1.206 -0.000633581 0.300275 0.888218 1.13819 
0.01 0.535 0.532187 1.206 -0.00148266 0.299745 0.887989 1.13638 
0.01 0.54 0.531982 1.206 -0.00165008 0.299564 0.887892 1.13578 
0.01 0.545 0.532616 1.206 -0.000521579 0.300056 0.888093 1.13747 
0.01 0.55 0.532986 1.206 0.000499239 0.300409 0.888306 1.13862 
0.01 0.555 0.533206 1.206 0.000651811 0.300546 0.888325 1.13912 
0.01 0.56 0.532604 1.206 -0.000261222 0.300072 0.888125 1.1375 