TITLE=DGSolution
VARIABLES=X Y rho u v pre c E 
ZONE T=TA, I=201, J=201, DATAPACKING = POINT
0 0 0.138 1.206 1.206 0.029 0.542405 0.273212 
0 0.005 0.138 1.206 1.206 0.029 0.542405 0.273212 
0 0.01 0.138 1.206 1.206 0.029 0.542405 0.273212 
0 0.015 0.138 1.206 1.206 0.029 0.542405 0.273212 
0 0.02 0.138 1.206 1.206 0.029 0.542405 0.273212 
0 0.025 0.138 1.206 1.206 0.029 0.542405 0.273212 
0 0.03 0.138 1.206 1.206 0.029 0.542405 0.273212 
0 0.035 0.138 1.206 1.206 0.029 0.542405 0.273212 
0 0.04 0.138 1.206 1.206 0.029 0.542405 0.273212 
0 0.045 0.138 1.206 1.206 0.029 0.542405 0.273212 
0 0.05 0.138 1.206 1.206 0.029 0.542405 0.273212 
0 0.055 0.138 1.206 1.206 0.029 0.542405 0.273212 
0 0.06 0.138 1.206 1.206 0.029 0.542405 0.273212 
0 0.065 0.138 1.206 1.206 0.029 0.542405 0.273212 
0 0.07 0.138 1.206 1.206 0.029 0.542405 0.273212 
0 0.075 0.138 1.206 1.206 0.029 0.542405 0.273212 
0 0.08 0.138 1.206 1.206 0.029 0.542405 0.273212 
0 0.085 0.138 1.206 1.206 0.029 0.542405 0.273212 
0 0.09 0.138 1.206 1.206 0.029 0.542405 0.273212 
0 0.095 0.138 1.206 1.206 0.029 0.542405 0.273212 
0 0.1 0.138 1.206 1.206 0.029 0.542405 0.273212 
0 0.105 0.138 1.206 1.206 0.029 0.542405 0.273212 
0 0.11 0.138 1.206 1.206 0.029 0.542405 0.273212 
0 0.115 0.138 1.206 1.206 0.029 0.542405 0.273212 
0 0.12 0.138 1.206 1.206 0.029 0.542405 0.273212 
0 0.125 0.138 1.206 1.206 0.029 0.542405 0.273212 
0 0.13 0.138 1.206 1.206 0.029 0.542405 0.273212 
0 0.135 0.138 1.206 1.206 0.029 0.542405 0.273212 
0 0.14 0.138 1.206 1.206 0.029 0.542405 0.273212 
0 0.145 0.138 1.206 1.206 0.029 0.542405 0.273212 
0 0.15 0.138 1.206 1.206 0.029 0.542405 0.273212 
0 0.155 0.138 1.206 1.206 0.029 0.542405 0.273212 
0 0.16 0.138 1.206 1.206 0.029 0.542405 0.273212 
0 0.165 0.138 1.206 1.206 0.029 0.542405 0.273212 
0 0.17 0.138 1.206 1.206 0.029 0.542405 0.273212 
0 0.175 0.138 1.206 1.206 0.029 0.542405 0.273212 
0 0.18 0.138 1.206 1.206 0.029 0.542405 0.273212 
0 0.185 0.138 1.206 1.206 0.029 0.542405 0.273212 
0 0.19 0.138 1.206 1.206 0.029 0.542405 0.273212 
0 0.195 0.138 1.206 1.206 0.029 0.542405 0.273212 
0 0.2 0.138 1.206 1.206 0.029 0.542405 0.273212 
0 0.205 0.138 1.206 1.206 0.029 0.542405 0.273212 
0 0.21 0.138 1.206 1.206 0.029 0.542405 0.273212 
0 0.215 0.138 1.206 1.206 0.029 0.542405 0.273212 
0 0.22 0.138 1.206 1.206 0.029 0.542405 0.273212 
0 0.225 0.138 1.206 1.206 0.029 0.542405 0.273212 
0 0.23 0.138 1.206 1.206 0.029 0.542405 0.273212 
0 0.235 0.138 1.206 1.206 0.029 0.542405 0.273212 
0 0.24 0.138 1.206 1.206 0.029 0.542405 0.273212 
0 0.245 0.138 1.206 1.206 0.029 0.542405 0.273212 
0 0.25 0.138 1.206 1.206 0.029 0.542405 0.273212 
0 0.255 0.138 1.206 1.206 0.029 0.542405 0.273212 
0 0.26 0.138 1.206 1.206 0.029 0.542405 0.273212 
0 0.265 0.138 1.206 1.206 0.029 0.542405 0.273212 
0 0.27 0.138 1.206 1.206 0.029 0.542405 0.273212 
0 0.275 0.138 1.206 1.206 0.029 0.542405 0.273212 
0 0.28 0.138 1.206 1.206 0.029 0.542405 0.273212 
0 0.285 0.138 1.206 1.206 0.029 0.542405 0.273212 
0 0.29 0.138 1.206 1.206 0.029 0.542405 0.273212 
0 0.295 0.138 1.206 1.206 0.029 0.542405 0.273212 
0 0.3 0.138 1.206 1.206 0.029 0.542405 0.273212 
0 0.305 0.138 1.206 1.206 0.029 0.542405 0.273212 
0 0.31 0.138 1.206 1.206 0.029 0.542405 0.273212 
0 0.315 0.138 1.206 1.206 0.029 0.542405 0.273212 
0 0.32 0.138 1.206 1.206 0.029 0.542405 0.273212 
0 0.325 0.138 1.206 1.206 0.029 0.542405 0.273212 
0 0.33 0.138 1.206 1.206 0.029 0.542405 0.273212 
0 0.335 0.138 1.206 1.206 0.029 0.542405 0.273212 
0 0.34 0.138 1.206 1.206 0.029 0.542405 0.273212 
0 0.345 0.138 1.206 1.206 0.029 0.542405 0.273212 
0 0.35 0.138 1.206 1.206 0.029 0.542405 0.273212 
0 0.355 0.138 1.206 1.206 0.029 0.542405 0.273212 
0 0.36 0.138 1.206 1.206 0.029 0.542405 0.273212 
0 0.365 0.138 1.206 1.206 0.029 0.542405 0.273212 
0 0.37 0.138 1.206 1.206 0.029 0.542405 0.273212 
0 0.375 0.138 1.206 1.206 0.029 0.542405 0.273212 
0 0.38 0.138 1.206 1.206 0.029 0.542405 0.273212 
0 0.385 0.138 1.206 1.206 0.029 0.542405 0.273212 
0 0.39 0.138 1.206 1.206 0.029 0.542405 0.273212 
0 0.395 0.138 1.206 1.206 0.029 0.542405 0.273212 
0 0.4 0.138 1.206 1.206 0.029 0.542405 0.273212 
0 0.405 0.138 1.206 1.206 0.029 0.542405 0.273212 
0 0.41 0.138 1.206 1.206 0.029 0.542405 0.273212 
0 0.415 0.138 1.206 1.206 0.029 0.542405 0.273212 
0 0.42 0.138 1.206 1.206 0.029 0.542405 0.273211 
0 0.425 0.138001 1.206 1.20601 0.0290001 0.542404 0.273214 
0 0.43 0.137998 1.206 1.20599 0.0289995 0.542404 0.273206 
0 0.435 0.13801 1.206 1.20598 0.0290044 0.542425 0.273234 
0 0.44 0.137965 1.206 1.20611 0.0289853 0.542337 0.273142 
0 0.445 0.13822 1.206 1.20545 0.0290698 0.542624 0.273615 
0 0.45 0.14064 1.206 1.18733 0.0302621 0.548857 0.277066 
0 0.455 0.171715 1.206 0.9643 0.0510881 0.645385 0.332431 
0 0.46 0.375389 1.206 0.245 0.192424 0.847136 0.765317 
0 0.465 0.522659 1.206 0.0107424 0.293182 0.886183 1.11307 
0 0.47 0.532978 1.206 -0.000339062 0.300333 0.8882 1.13842 
0 0.475 0.532405 1.206 -1.28232e-05 0.299925 0.888074 1.13699 
0 0.48 0.532443 1.206 -0.000181857 0.299933 0.888054 1.13704 
0 0.485 0.532542 1.206 -0.000118229 0.300024 0.888106 1.13733 
0 0.49 0.53253 1.206 -0.000141196 0.300009 0.888095 1.13729 
0 0.495 0.5326 1.206 -0.000344469 0.300064 0.888118 1.13748 
0 0.5 0.53272 1.206 -0.000476638 0.30016 0.888159 1.1378 
0 0.505 0.532837 1.206 -0.000672621 0.300252 0.888198 1.13812 
0 0.51 0.532934 1.206 -0.00086338 0.300329 0.888231 1.13838 
0 0.515 0.532993 1.206 -0.000947481 0.300376 0.88825 1.13854 
0 0.52 0.532989 1.206 -0.000936073 0.300372 0.888249 1.13853 
0 0.525 0.532926 1.206 -0.000839514 0.300323 0.888228 1.13836 
0 0.53 0.532834 1.206 -0.000684415 0.30025 0.888197 1.13811 
0 0.535 0.53274 1.206 -0.000524947 0.300175 0.888166 1.13786 
0 0.54 0.532663 1.206 -0.000399678 0.300115 0.88814 1.13765 
0 0.545 0.532617 1.206 -0.000321872 0.300079 0.888125 1.13752 
0 0.55 0.532598 1.206 -0.000289517 0.300064 0.888119 1.13747 
0 0.555 0.532598 1.206 -0.000289563 0.300064 0.888119 1.13747 
0 0.56 0.532607 1.206 -0.000305258 0.300071 0.888122 1.1375 
0 0.565 0.532618 1.206 -0.000323735 0.30008 0.888126 1.13753 
0 0.57 0.532626 1.206 -0.000336836 0.300086 0.888128 1.13755 
0 0.575 0.532628 1.206 -0.000340225 0.300088 0.888129 1.13756 
0 0.58 0.532625 1.206 -0.000334276 0.300085 0.888127 1.13755 
0 0.585 0.532619 1.206 -0.000324246 0.30008 0.888125 1.13753 
0 0.59 0.532615 1.206 -0.000318235 0.300077 0.888124 1.13752 
0 0.595 0.532618 1.206 -0.000323408 0.30008 0.888125 1.13753 
0 0.6 0.53263 1.206 -0.000342013 0.300088 0.888129 1.13756 
0 0.605 0.532646 1.206 -0.000369655 0.300101 0.888134 1.1376 
0 0.61 0.532663 1.206 -0.000397122 0.300114 0.88814 1.13765 
0 0.615 0.532673 1.206 -0.000414733 0.300123 0.888144 1.13768 
0 0.62 0.532674 1.206 -0.000416933 0.300124 0.888145 1.13768 
0 0.625 0.532666 1.206 -0.000404923 0.300118 0.888142 1.13766 
0 0.63 0.532656 1.206 -0.000386065 0.300109 0.888138 1.13763 
0 0.635 0.532648 1.206 -0.000370353 0.300102 0.888134 1.13761 
0 0.64 0.532646 1.206 -0.000365597 0.3001 0.888132 1.1376 
0 0.645 0.53265 1.206 -0.000373617 0.300103 0.888134 1.13761 
0 0.65 0.532659 1.206 -0.000389439 0.300111 0.888138 1.13764 
0 0.655 0.532667 1.206 -0.000404071 0.300118 0.888141 1.13766 
0 0.66 0.532671 1.206 -0.000409515 0.30012 0.888142 1.13767 
0 0.665 0.532668 1.206 -0.00040327 0.300117 0.88814 1.13766 
0 0.67 0.532661 1.206 -0.000389709 0.300111 0.888136 1.13764 
0 0.675 0.532652 1.206 -0.000377431 0.300105 0.888135 1.13762 
0 0.68 0.532648 1.206 -0.000374117 0.300104 0.888136 1.13761 
0 0.685 0.532652 1.206 -0.000381943 0.300107 0.888138 1.13762 
0 0.69 0.532664 1.206 -0.000396336 0.300114 0.888138 1.13765 
0 0.695 0.532679 1.206 -0.000408777 0.30012 0.888134 1.13767 
0 0.7 0.532685 1.206 -0.000411879 0.300121 0.888132 1.13768 
0 0.705 0.532675 1.206 -0.00040361 0.300118 0.888135 1.13767 
0 0.71 0.532651 1.206 -0.000388257 0.300111 0.888143 1.13763 
0 0.715 0.532632 1.206 -0.000373833 0.300104 0.888149 1.1376 
0 0.72 0.532639 1.206 -0.000367635 0.3001 0.888138 1.1376 
0 0.725 0.532674 1.206 -0.000372446 0.300102 0.888112 1.13763 
0 0.73 0.532706 1.206 -0.000385295 0.300109 0.888095 1.13766 
0 0.735 0.532684 1.206 -0.000399217 0.300116 0.888124 1.13767 
0 0.74 0.532594 1.206 -0.000407119 0.30012 0.888205 1.13761 
0 0.745 0.5325 1.206 -0.000405485 0.300119 0.888282 1.13754 
0 0.75 0.532536 1.206 -0.000396184 0.300114 0.888245 1.13756 
0 0.755 0.532787 1.206 -0.000384757 0.300108 0.888027 1.13772 
0 0.76 0.533158 1.206 -0.000377306 0.300104 0.887712 1.13798 
0 0.765 0.533327 1.206 -0.000378209 0.300104 0.887571 1.1381 
0 0.77 0.532846 1.206 -0.000384459 0.300108 0.887977 1.13776 
0 0.775 0.531428 1.206 -0.000391867 0.300113 0.889169 1.13675 
0 0.78 0.529255 1.206 -0.000399386 0.300117 0.890998 1.13518 
0 0.785 0.526925 1.206 -0.000399629 0.300118 0.892967 1.13348 
0 0.79 0.525179 1.206 -0.000391977 0.300114 0.894444 1.13221 
0 0.795 0.524691 1.206 -0.000387253 0.300109 0.894852 1.13184 
0 0.8 0.525647 1.206 -0.000382548 0.300105 0.894033 1.13252 
0 0.805 0.527583 1.206 -0.000379136 0.300105 0.89239 1.13393 
0 0.81 0.529793 1.206 -0.000385155 0.300108 0.890532 1.13555 
0 0.815 0.531618 1.206 -0.000393839 0.300114 0.889011 1.13689 
0 0.82 0.532647 1.206 -0.000399075 0.300117 0.888157 1.13764 
0 0.825 0.532898 1.206 -0.000400588 0.300117 0.887948 1.13783 
0 0.83 0.532715 1.206 -0.000396418 0.300114 0.888095 1.13768 
0 0.835 0.532457 1.206 -0.00038744 0.300109 0.888303 1.13749 
0 0.84 0.532325 1.206 -0.000379411 0.300106 0.888409 1.13738 
0 0.845 0.532337 1.206 -0.000376804 0.300106 0.888398 1.13739 
0 0.85 0.532408 1.206 -0.000381464 0.300108 0.888343 1.13745 
0 0.855 0.53246 1.206 -0.000390805 0.300111 0.888304 1.13749 
0 0.86 0.532469 1.206 -0.000398923 0.300114 0.888301 1.13751 
0 0.865 0.532455 1.206 -0.00040059 0.300115 0.888314 1.1375 
0 0.87 0.532439 1.206 -0.000394973 0.300113 0.888325 1.13748 
0 0.875 0.532432 1.206 -0.000386267 0.30011 0.888326 1.13747 
0 0.88 0.532433 1.206 -0.00038044 0.300107 0.888321 1.13746 
0 0.885 0.532436 1.206 -0.000380915 0.300107 0.888318 1.13746 
0 0.89 0.53244 1.206 -0.00038664 0.30011 0.888318 1.13747 
0 0.895 0.532443 1.206 -0.000393628 0.300113 0.888321 1.13748 
0 0.9 0.532445 1.206 -0.000398034 0.300115 0.888322 1.13749 
0 0.905 0.532444 1.206 -0.000397749 0.300114 0.888322 1.13749 
0 0.91 0.532441 1.206 -0.00039303 0.300112 0.888321 1.13748 
0 0.915 0.532439 1.206 -0.000385869 0.30011 0.88832 1.13747 
0 0.92 0.532438 1.206 -0.000380304 0.300109 0.888319 1.13747 
0 0.925 0.532439 1.206 -0.000380567 0.30011 0.888319 1.13747 
0 0.93 0.532439 1.206 -0.000387437 0.30011 0.888319 1.13747 
0 0.935 0.532438 1.206 -0.000397521 0.300109 0.888319 1.13747 
0 0.94 0.532439 1.206 -0.000401401 0.30011 0.88832 1.13748 
0 0.945 0.532441 1.206 -0.000396007 0.300112 0.88832 1.13748 
0 0.95 0.532444 1.206 -0.000382974 0.300114 0.888321 1.13749 
0 0.955 0.532444 1.206 -0.000373685 0.300114 0.888321 1.13749 
0 0.96 0.532439 1.206 -0.000379894 0.30011 0.88832 1.13747 
0 0.965 0.532436 1.206 -0.000391568 0.300108 0.888319 1.13747 
0 0.97 0.532431 1.206 -0.000408605 0.300104 0.888317 1.13745 
0 0.975 0.53244 1.206 -0.000399904 0.30011 0.888319 1.13748 
0 0.98 0.532446 1.206 -0.000383229 0.300115 0.888322 1.13749 
0 0.985 0.532449 1.206 -0.000373533 0.300117 0.888322 1.1375 
0 0.99 0.532452 1.206 -0.000363262 0.30012 0.888324 1.13751 
0 0.995 0.532417 1.206 -0.000416683 0.300095 0.888315 1.13742 
0 1 0.532439 1.206 -0.000398459 0.300109 0.888319 1.13747 
0.005 0 0.138 1.206 1.206 0.029 0.542405 0.273212 
0.005 0.005 0.138 1.206 1.206 0.029 0.542405 0.273212 
0.005 0.01 0.138 1.206 1.206 0.029 0.542405 0.273212 
0.005 0.015 0.138 1.206 1.206 0.029 0.542405 0.273212 
0.005 0.02 0.138 1.206 1.206 0.029 0.542405 0.273212 
0.005 0.025 0.138 1.206 1.206 0.029 0.542405 0.273212 
0.005 0.03 0.138 1.206 1.206 0.029 0.542405 0.273212 
0.005 0.035 0.138 1.206 1.206 0.029 0.542405 0.273212 
0.005 0.04 0.138 1.206 1.206 0.029 0.542405 0.273212 
0.005 0.045 0.138 1.206 1.206 0.029 0.542405 0.273212 
0.005 0.05 0.138 1.206 1.206 0.029 0.542405 0.273212 
0.005 0.055 0.138 1.206 1.206 0.029 0.542405 0.273212 
0.005 0.06 0.138 1.206 1.206 0.029 0.542405 0.273212 
0.005 0.065 0.138 1.206 1.206 0.029 0.542405 0.273212 
0.005 0.07 0.138 1.206 1.206 0.029 0.542405 0.273212 
0.005 0.075 0.138 1.206 1.206 0.029 0.542405 0.273212 
0.005 0.08 0.138 1.206 1.206 0.029 0.542405 0.273212 
0.005 0.085 0.138 1.206 1.206 0.029 0.542405 0.273212 
0.005 0.09 0.138 1.206 1.206 0.029 0.542405 0.273212 
0.005 0.095 0.138 1.206 1.206 0.029 0.542405 0.273212 
0.005 0.1 0.138 1.206 1.206 0.029 0.542405 0.273212 
0.005 0.105 0.138 1.206 1.206 0.029 0.542405 0.273212 
0.005 0.11 0.138 1.206 1.206 0.029 0.542405 0.273212 
0.005 0.115 0.138 1.206 1.206 0.029 0.542405 0.273212 
0.005 0.12 0.138 1.206 1.206 0.029 0.542405 0.273212 
0.005 0.125 0.138 1.206 1.206 0.029 0.542405 0.273212 
0.005 0.13 0.138 1.206 1.206 0.029 0.542405 0.273212 
0.005 0.135 0.138 1.206 1.206 0.029 0.542405 0.273212 
0.005 0.14 0.138 1.206 1.206 0.029 0.542405 0.273212 
0.005 0.145 0.138 1.206 1.206 0.029 0.542405 0.273212 
0.005 0.15 0.138 1.206 1.206 0.029 0.542405 0.273212 
0.005 0.155 0.138 1.206 1.206 0.029 0.542405 0.273212 
0.005 0.16 0.138 1.206 1.206 0.029 0.542405 0.273212 
0.005 0.165 0.138 1.206 1.206 0.029 0.542405 0.273212 
0.005 0.17 0.138 1.206 1.206 0.029 0.542405 0.273212 
0.005 0.175 0.138 1.206 1.206 0.029 0.542405 0.273212 
0.005 0.18 0.138 1.206 1.206 0.029 0.542405 0.273212 
0.005 0.185 0.138 1.206 1.206 0.029 0.542405 0.273212 
0.005 0.19 0.138 1.206 1.206 0.029 0.542405 0.273212 
0.005 0.195 0.138 1.206 1.206 0.029 0.542405 0.273212 
0.005 0.2 0.138 1.206 1.206 0.029 0.542405 0.273212 
0.005 0.205 0.138 1.206 1.206 0.029 0.542405 0.273212 
0.005 0.21 0.138 1.206 1.206 0.029 0.542405 0.273212 
0.005 0.215 0.138 1.206 1.206 0.029 0.542405 0.273212 
0.005 0.22 0.138 1.206 1.206 0.029 0.542405 0.273212 
0.005 0.225 0.138 1.206 1.206 0.029 0.542405 0.273212 
0.005 0.23 0.138 1.206 1.206 0.029 0.542405 0.273212 
0.005 0.235 0.138 1.206 1.206 0.029 0.542405 0.273212 
0.005 0.24 0.138 1.206 1.206 0.029 0.542405 0.273212 
0.005 0.245 0.138 1.206 1.206 0.029 0.542405 0.273212 
0.005 0.25 0.138 1.206 1.206 0.029 0.542405 0.273212 
0.005 0.255 0.138 1.206 1.206 0.029 0.542405 0.273212 
0.005 0.26 0.138 1.206 1.206 0.029 0.542405 0.273212 
0.005 0.265 0.138 1.206 1.206 0.029 0.542405 0.273212 
0.005 0.27 0.138 1.206 1.206 0.029 0.542405 0.273212 
0.005 0.275 0.138 1.206 1.206 0.029 0.542405 0.273212 
0.005 0.28 0.138 1.206 1.206 0.029 0.542405 0.273212 
0.005 0.285 0.138 1.206 1.206 0.029 0.542405 0.273212 
0.005 0.29 0.138 1.206 1.206 0.029 0.542405 0.273212 
0.005 0.295 0.138 1.206 1.206 0.029 0.542405 0.273212 
0.005 0.3 0.138 1.206 1.206 0.029 0.542405 0.273212 
0.005 0.305 0.138 1.206 1.206 0.029 0.542405 0.273212 
0.005 0.31 0.138 1.206 1.206 0.029 0.542405 0.273212 
0.005 0.315 0.138 1.206 1.206 0.029 0.542405 0.273212 
0.005 0.32 0.138 1.206 1.206 0.029 0.542405 0.273212 
0.005 0.325 0.138 1.206 1.206 0.029 0.542405 0.273212 
0.005 0.33 0.138 1.206 1.206 0.029 0.542405 0.273212 
0.005 0.335 0.138 1.206 1.206 0.029 0.542405 0.273212 
0.005 0.34 0.138 1.206 1.206 0.029 0.542405 0.273212 
0.005 0.345 0.138 1.206 1.206 0.029 0.542405 0.273212 
0.005 0.35 0.138 1.206 1.206 0.029 0.542405 0.273212 
0.005 0.355 0.138 1.206 1.206 0.029 0.542405 0.273212 
0.005 0.36 0.138 1.206 1.206 0.029 0.542405 0.273212 
0.005 0.365 0.138 1.206 1.206 0.029 0.542405 0.273212 
0.005 0.37 0.138 1.206 1.206 0.029 0.542405 0.273212 
0.005 0.375 0.138 1.206 1.206 0.029 0.542405 0.273212 
0.005 0.38 0.138 1.206 1.206 0.029 0.542405 0.273212 
0.005 0.385 0.138 1.206 1.206 0.029 0.542405 0.273212 
0.005 0.39 0.138 1.206 1.206 0.029 0.542405 0.273212 
0.005 0.395 0.138 1.206 1.206 0.029 0.542405 0.273212 
0.005 0.4 0.138 1.206 1.206 0.029 0.542405 0.273212 
0.005 0.405 0.138 1.206 1.206 0.029 0.542405 0.273212 
0.005 0.41 0.138 1.206 1.206 0.029 0.542405 0.273212 
0.005 0.415 0.138 1.206 1.206 0.029 0.542405 0.273212 
0.005 0.42 0.138 1.206 1.206 0.029 0.542405 0.273211 
0.005 0.425 0.138001 1.206 1.20601 0.0290001 0.542404 0.273214 
0.005 0.43 0.137998 1.206 1.20599 0.0289995 0.542404 0.273206 
0.005 0.435 0.13801 1.206 1.20598 0.0290044 0.542425 0.273234 
0.005 0.44 0.137965 1.206 1.20611 0.0289853 0.542337 0.273142 
0.005 0.445 0.13822 1.206 1.20545 0.0290698 0.542624 0.273615 
0.005 0.45 0.14064 1.206 1.18733 0.0302621 0.548857 0.277066 
0.005 0.455 0.171715 1.206 0.9643 0.0510881 0.645385 0.332431 
0.005 0.46 0.375389 1.206 0.245 0.192424 0.847136 0.765317 
0.005 0.465 0.522659 1.206 0.0107424 0.293182 0.886183 1.11307 
0.005 0.47 0.532978 1.206 -0.000339062 0.300333 0.8882 1.13842 
0.005 0.475 0.532405 1.206 -1.28232e-05 0.299925 0.888074 1.13699 
0.005 0.48 0.532443 1.206 -0.000181857 0.299933 0.888054 1.13704 
0.005 0.485 0.532542 1.206 -0.000118229 0.300024 0.888106 1.13733 
0.005 0.49 0.53253 1.206 -0.000141196 0.300009 0.888095 1.13729 
0.005 0.495 0.5326 1.206 -0.000344469 0.300064 0.888118 1.13748 
0.005 0.5 0.53272 1.206 -0.000476638 0.30016 0.888159 1.1378 
0.005 0.505 0.532837 1.206 -0.000672621 0.300252 0.888198 1.13812 
0.005 0.51 0.532934 1.206 -0.00086338 0.300329 0.888231 1.13838 
0.005 0.515 0.532993 1.206 -0.000947481 0.300376 0.88825 1.13854 
0.005 0.52 0.532989 1.206 -0.000936073 0.300372 0.888249 1.13853 
0.005 0.525 0.532926 1.206 -0.000839514 0.300323 0.888228 1.13836 
0.005 0.53 0.532834 1.206 -0.000684415 0.30025 0.888197 1.13811 
0.005 0.535 0.53274 1.206 -0.000524947 0.300175 0.888166 1.13786 
0.005 0.54 0.532663 1.206 -0.000399678 0.300115 0.88814 1.13765 
0.005 0.545 0.532617 1.206 -0.000321872 0.300079 0.888125 1.13752 
0.005 0.55 0.532598 1.206 -0.000289517 0.300064 0.888119 1.13747 
0.005 0.555 0.532598 1.206 -0.000289563 0.300064 0.888119 1.13747 
0.005 0.56 0.532607 1.206 -0.000305258 0.300071 0.888122 1.1375 
0.005 0.565 0.532618 1.206 -0.000323735 0.30008 0.888126 1.13753 
0.005 0.57 0.532626 1.206 -0.000336836 0.300086 0.888128 1.13755 
0.005 0.575 0.532628 1.206 -0.000340225 0.300088 0.888129 1.13756 
0.005 0.58 0.532625 1.206 -0.000334276 0.300085 0.888127 1.13755 
0.005 0.585 0.532619 1.206 -0.000324246 0.30008 0.888125 1.13753 
0.005 0.59 0.532615 1.206 -0.000318235 0.300077 0.888124 1.13752 
0.005 0.595 0.532618 1.206 -0.000323408 0.30008 0.888125 1.13753 
0.005 0.6 0.53263 1.206 -0.000342013 0.300088 0.888129 1.13756 
0.005 0.605 0.532646 1.206 -0.000369655 0.300101 0.888134 1.1376 
0.005 0.61 0.532663 1.206 -0.000397122 0.300114 0.88814 1.13765 
0.005 0.615 0.532673 1.206 -0.000414733 0.300123 0.888144 1.13768 
0.005 0.62 0.532674 1.206 -0.000416933 0.300124 0.888145 1.13768 
0.005 0.625 0.532666 1.206 -0.000404923 0.300118 0.888142 1.13766 
0.005 0.63 0.532656 1.206 -0.000386065 0.300109 0.888138 1.13763 
0.005 0.635 0.532648 1.206 -0.000370353 0.300102 0.888134 1.13761 
0.005 0.64 0.532646 1.206 -0.000365597 0.3001 0.888132 1.1376 
0.005 0.645 0.53265 1.206 -0.000373617 0.300103 0.888134 1.13761 
0.005 0.65 0.532659 1.206 -0.000389439 0.300111 0.888138 1.13764 
0.005 0.655 0.532667 1.206 -0.000404071 0.300118 0.888141 1.13766 
0.005 0.66 0.532671 1.206 -0.000409515 0.30012 0.888142 1.13767 
0.005 0.665 0.532668 1.206 -0.00040327 0.300117 0.88814 1.13766 
0.005 0.67 0.532661 1.206 -0.000389709 0.300111 0.888136 1.13764 
0.005 0.675 0.532652 1.206 -0.000377431 0.300105 0.888135 1.13762 
0.005 0.68 0.532648 1.206 -0.000374117 0.300104 0.888136 1.13761 
0.005 0.685 0.532652 1.206 -0.000381943 0.300107 0.888138 1.13762 
0.005 0.69 0.532664 1.206 -0.000396336 0.300114 0.888138 1.13765 
0.005 0.695 0.532679 1.206 -0.000408777 0.30012 0.888134 1.13767 
0.005 0.7 0.532685 1.206 -0.000411879 0.300121 0.888132 1.13768 
0.005 0.705 0.532675 1.206 -0.00040361 0.300118 0.888135 1.13767 
0.005 0.71 0.532651 1.206 -0.000388257 0.300111 0.888143 1.13763 
0.005 0.715 0.532632 1.206 -0.000373833 0.300104 0.888149 1.1376 
0.005 0.72 0.532639 1.206 -0.000367635 0.3001 0.888138 1.1376 
0.005 0.725 0.532674 1.206 -0.000372446 0.300102 0.888112 1.13763 
0.005 0.73 0.532706 1.206 -0.000385295 0.300109 0.888095 1.13766 
0.005 0.735 0.532684 1.206 -0.000399217 0.300116 0.888124 1.13767 
0.005 0.74 0.532594 1.206 -0.000407119 0.30012 0.888205 1.13761 
0.005 0.745 0.5325 1.206 -0.000405485 0.300119 0.888282 1.13754 
0.005 0.75 0.532536 1.206 -0.000396184 0.300114 0.888245 1.13756 
0.005 0.755 0.532787 1.206 -0.000384757 0.300108 0.888027 1.13772 
0.005 0.76 0.533158 1.206 -0.000377306 0.300104 0.887712 1.13798 
0.005 0.765 0.533327 1.206 -0.000378209 0.300104 0.887571 1.1381 
0.005 0.77 0.532846 1.206 -0.000384459 0.300108 0.887977 1.13776 
0.005 0.775 0.531428 1.206 -0.000391867 0.300113 0.889169 1.13675 
0.005 0.78 0.529255 1.206 -0.000399386 0.300117 0.890998 1.13518 
0.005 0.785 0.526925 1.206 -0.000399629 0.300118 0.892967 1.13348 
0.005 0.79 0.525179 1.206 -0.000391977 0.300114 0.894444 1.13221 
0.005 0.795 0.524691 1.206 -0.000387253 0.300109 0.894852 1.13184 
0.005 0.8 0.525647 1.206 -0.000382548 0.300105 0.894033 1.13252 
0.005 0.805 0.527583 1.206 -0.000379136 0.300105 0.89239 1.13393 
0.005 0.81 0.529793 1.206 -0.000385155 0.300108 0.890532 1.13555 
0.005 0.815 0.531618 1.206 -0.000393839 0.300114 0.889011 1.13689 
0.005 0.82 0.532647 1.206 -0.000399075 0.300117 0.888157 1.13764 
0.005 0.825 0.532898 1.206 -0.000400588 0.300117 0.887948 1.13783 
0.005 0.83 0.532715 1.206 -0.000396418 0.300114 0.888095 1.13768 
0.005 0.835 0.532457 1.206 -0.00038744 0.300109 0.888303 1.13749 
0.005 0.84 0.532325 1.206 -0.000379411 0.300106 0.888409 1.13738 
0.005 0.845 0.532337 1.206 -0.000376804 0.300106 0.888398 1.13739 
0.005 0.85 0.532408 1.206 -0.000381464 0.300108 0.888343 1.13745 
0.005 0.855 0.53246 1.206 -0.000390805 0.300111 0.888304 1.13749 
0.005 0.86 0.532469 1.206 -0.000398923 0.300114 0.888301 1.13751 
0.005 0.865 0.532455 1.206 -0.00040059 0.300115 0.888314 1.1375 
0.005 0.87 0.532439 1.206 -0.000394973 0.300113 0.888325 1.13748 
0.005 0.875 0.532432 1.206 -0.000386267 0.30011 0.888326 1.13747 
0.005 0.88 0.532433 1.206 -0.00038044 0.300107 0.888321 1.13746 
0.005 0.885 0.532436 1.206 -0.000380915 0.300107 0.888318 1.13746 
0.005 0.89 0.53244 1.206 -0.00038664 0.30011 0.888318 1.13747 
0.005 0.895 0.532443 1.206 -0.000393628 0.300113 0.888321 1.13748 
0.005 0.9 0.532445 1.206 -0.000398034 0.300115 0.888322 1.13749 
0.005 0.905 0.532444 1.206 -0.000397749 0.300114 0.888322 1.13749 
0.005 0.91 0.532441 1.206 -0.00039303 0.300112 0.888321 1.13748 
0.005 0.915 0.532439 1.206 -0.000385869 0.30011 0.88832 1.13747 
0.005 0.92 0.532438 1.206 -0.000380304 0.300109 0.888319 1.13747 
0.005 0.925 0.532439 1.206 -0.000380567 0.30011 0.888319 1.13747 
0.005 0.93 0.532439 1.206 -0.000387437 0.30011 0.888319 1.13747 
0.005 0.935 0.532438 1.206 -0.000397521 0.300109 0.888319 1.13747 
0.005 0.94 0.532439 1.206 -0.000401401 0.30011 0.88832 1.13748 
0.005 0.945 0.532441 1.206 -0.000396007 0.300112 0.88832 1.13748 
0.005 0.95 0.532444 1.206 -0.000382974 0.300114 0.888321 1.13749 
0.005 0.955 0.532444 1.206 -0.000373685 0.300114 0.888321 1.13749 
0.005 0.96 0.532439 1.206 -0.000379894 0.30011 0.88832 1.13747 
0.005 0.965 0.532436 1.206 -0.000391568 0.300108 0.888319 1.13747 
0.005 0.97 0.532431 1.206 -0.000408605 0.300104 0.888317 1.13745 
0.005 0.975 0.53244 1.206 -0.000399904 0.30011 0.888319 1.13748 
0.005 0.98 0.532446 1.206 -0.000383229 0.300115 0.888322 1.13749 
0.005 0.985 0.532449 1.206 -0.000373533 0.300117 0.888322 1.1375 
0.005 0.99 0.532452 1.206 -0.000363262 0.30012 0.888324 1.13751 
0.005 0.995 0.532417 1.206 -0.000416683 0.300095 0.888315 1.13742 
0.005 1 0.532439 1.206 -0.000398459 0.300109 0.888319 1.13747 
0.01 0 0.138 1.206 1.206 0.029 0.542405 0.273212 
0.01 0.005 0.138 1.206 1.206 0.029 0.542405 0.273212 
0.01 0.01 0.138 1.206 1.206 0.029 0.542405 0.273212 
0.01 0.015 0.138 1.206 1.206 0.029 0.542405 0.273212 
0.01 0.02 0.138 1.206 1.206 0.029 0.542405 0.273212 
0.01 0.025 0.138 1.206 1.206 0.029 0.542405 0.273212 
0.01 0.03 0.138 1.206 1.206 0.029 0.542405 0.273212 
0.01 0.035 0.138 1.206 1.206 0.029 0.542405 0.273212 
0.01 0.04 0.138 1.206 1.206 0.029 0.542405 0.273212 
0.01 0.045 0.138 1.206 1.206 0.029 0.542405 0.273212 
0.01 0.05 0.138 1.206 1.206 0.029 0.542405 0.273212 
0.01 0.055 0.138 1.206 1.206 0.029 0.542405 0.273212 
0.01 0.06 0.138 1.206 1.206 0.029 0.542405 0.273212 
0.01 0.065 0.138 1.206 1.206 0.029 0.542405 0.273212 
0.01 0.07 0.138 1.206 1.206 0.029 0.542405 0.273212 
0.01 0.075 0.138 1.206 1.206 0.029 0.542405 0.273212 
0.01 0.08 0.138 1.206 1.206 0.029 0.542405 0.273212 
0.01 0.085 0.138 1.206 1.206 0.029 0.542405 0.273212 
0.01 0.09 0.138 1.206 1.206 0.029 0.542405 0.273212 
0.01 0.095 0.138 1.206 1.206 0.029 0.542405 0.273212 
0.01 0.1 0.138 1.206 1.206 0.029 0.542405 0.273212 
0.01 0.105 0.138 1.206 1.206 0.029 0.542405 0.273212 
0.01 0.11 0.138 1.206 1.206 0.029 0.542405 0.273212 
0.01 0.115 0.138 1.206 1.206 0.029 0.542405 0.273212 
0.01 0.12 0.138 1.206 1.206 0.029 0.542405 0.273212 
0.01 0.125 0.138 1.206 1.206 0.029 0.542405 0.273212 
0.01 0.13 0.138 1.206 1.206 0.029 0.542405 0.273212 
0.01 0.135 0.138 1.206 1.206 0.029 0.542405 0.273212 
0.01 0.14 0.138 1.206 1.206 0.029 0.542405 0.273212 
0.01 0.145 0.138 1.206 1.206 0.029 0.542405 0.273212 
0.01 0.15 0.138 1.206 1.206 0.029 0.542405 0.273212 
0.01 0.155 0.138 1.206 1.206 0.029 0.542405 0.273212 
0.01 0.16 0.138 1.206 1.206 0.029 0.542405 0.273212 
0.01 0.165 0.138 1.206 1.206 0.029 0.542405 0.273212 
0.01 0.17 0.138 1.206 1.206 0.029 0.542405 0.273212 
0.01 0.175 0.138 1.206 1.206 0.029 0.542405 0.273212 
0.01 0.18 0.138 1.206 1.206 0.029 0.542405 0.273212 
0.01 0.185 0.138 1.206 1.206 0.029 0.542405 0.273212 
0.01 0.19 0.138 1.206 1.206 0.029 0.542405 0.273212 
0.01 0.195 0.138 1.206 1.206 0.029 0.542405 0.273212 
0.01 0.2 0.138 1.206 1.206 0.029 0.542405 0.273212 
0.01 0.205 0.138 1.206 1.206 0.029 0.542405 0.273212 
0.01 0.21 0.138 1.206 1.206 0.029 0.542405 0.273212 
0.01 0.215 0.138 1.206 1.206 0.029 0.542405 0.273212 
0.01 0.22 0.138 1.206 1.206 0.029 0.542405 0.273212 
0.01 0.225 0.138 1.206 1.206 0.029 0.542405 0.273212 
0.01 0.23 0.138 1.206 1.206 0.029 0.542405 0.273212 
0.01 0.235 0.138 1.206 1.206 0.029 0.542405 0.273212 
0.01 0.24 0.138 1.206 1.206 0.029 0.542405 0.273212 
0.01 0.245 0.138 1.206 1.206 0.029 0.542405 0.273212 
0.01 0.25 0.138 1.206 1.206 0.029 0.542405 0.273212 
0.01 0.255 0.138 1.206 1.206 0.029 0.542405 0.273212 
0.01 0.26 0.138 1.206 1.206 0.029 0.542405 0.273212 
0.01 0.265 0.138 1.206 1.206 0.029 0.542405 0.273212 
0.01 0.27 0.138 1.206 1.206 0.029 0.542405 0.273212 
0.01 0.275 0.138 1.206 1.206 0.029 0.542405 0.273212 
0.01 0.28 0.138 1.206 1.206 0.029 0.542405 0.273212 
0.01 0.285 0.138 1.206 1.206 0.029 0.542405 0.273212 
0.01 0.29 0.138 1.206 1.206 0.029 0.542405 0.273212 
0.01 0.295 0.138 1.206 1.206 0.029 0.542405 0.273212 
0.01 0.3 0.138 1.206 1.206 0.029 0.542405 0.273212 
0.01 0.305 0.138 1.206 1.206 0.029 0.542405 0.273212 
0.01 0.31 0.138 1.206 1.206 0.029 0.542405 0.273212 
0.01 0.315 0.138 1.206 1.206 0.029 0.542405 0.273212 
0.01 0.32 0.138 1.206 1.206 0.029 0.542405 0.273212 
0.01 0.325 0.138 1.206 1.206 0.029 0.542405 0.273212 
0.01 0.33 0.138 1.206 1.206 0.029 0.542405 0.273212 
0.01 0.335 0.138 1.206 1.206 0.029 0.542405 0.273212 
0.01 0.34 0.138 1.206 1.206 0.029 0.542405 0.273212 
0.01 0.345 0.138 1.206 1.206 0.029 0.542405 0.273212 
0.01 0.35 0.138 1.206 1.206 0.029 0.542405 0.273212 
0.01 0.355 0.138 1.206 1.206 0.029 0.542405 0.273212 
0.01 0.36 0.138 1.206 1.206 0.029 0.542405 0.273212 
0.01 0.365 0.138 1.206 1.206 0.029 0.542405 0.273212 
0.01 0.37 0.138 1.206 1.206 0.029 0.542405 0.273212 
0.01 0.375 0.138 1.206 1.206 0.029 0.542405 0.273212 
0.01 0.38 0.138 1.206 1.206 0.029 0.542405 0.273212 
0.01 0.385 0.138 1.206 1.206 0.029 0.542405 0.273212 
0.01 0.39 0.138 1.206 1.206 0.029 0.542405 0.273212 
0.01 0.395 0.138 1.206 1.206 0.029 0.542405 0.273212 
0.01 0.4 0.138 1.206 1.206 0.029 0.542405 0.273212 
0.01 0.405 0.138 1.206 1.206 0.029 0.542405 0.273212 
0.01 0.41 0.138 1.206 1.206 0.029 0.542405 0.273212 
0.01 0.415 0.138 1.206 1.206 0.029 0.542405 0.273212 
0.01 0.42 0.138 1.206 1.206 0.029 0.542405 0.273211 
0.01 0.425 0.138001 1.206 1.20601 0.0290001 0.542404 0.273214 
0.01 0.43 0.137998 1.206 1.20599 0.0289995 0.542404 0.273206 
0.01 0.435 0.13801 1.206 1.20598 0.0290044 0.542425 0.273234 
0.01 0.44 0.137965 1.206 1.20611 0.0289853 0.542337 0.273142 
0.01 0.445 0.13822 1.206 1.20545 0.0290698 0.542624 0.273615 
0.01 0.45 0.14064 1.206 1.18733 0.0302621 0.548857 0.277066 
0.01 0.455 0.171715 1.206 0.9643 0.0510881 0.645385 0.332431 
0.01 0.46 0.375389 1.206 0.245 0.192424 0.847136 0.765317 
0.01 0.465 0.522659 1.206 0.0107424 0.293182 0.886183 1.11307 
0.01 0.47 0.532978 1.206 -0.000339062 0.300333 0.8882 1.13842 
0.01 0.475 0.532405 1.206 -1.28232e-05 0.299925 0.888074 1.13699 
0.01 0.48 0.532443 1.206 -0.000181857 0.299933 0.888054 1.13704 
0.01 0.485 0.532542 1.206 -0.000118229 0.300024 0.888106 1.13733 
0.01 0.49 0.53253 1.206 -0.000141196 0.300009 0.888095 1.13729 
0.01 0.495 0.5326 1.206 -0.000344469 0.300064 0.888118 1.13748 
0.01 0.5 0.53272 1.206 -0.000476638 0.30016 0.888159 1.1378 
0.01 0.505 0.532837 1.206 -0.000672621 0.300252 0.888198 1.13812 
0.01 0.51 0.532934 1.206 -0.00086338 0.300329 0.888231 1.13838 
0.01 0.515 0.532993 1.206 -0.000947481 0.300376 0.88825 1.13854 
0.01 0.52 0.532989 1.206 -0.000936073 0.300372 0.888249 1.13853 
0.01 0.525 0.532926 1.206 -0.000839514 0.300323 0.888228 1.13836 
0.01 0.53 0.532834 1.206 -0.000684415 0.30025 0.888197 1.13811 
0.01 0.535 0.53274 1.206 -0.000524947 0.300175 0.888166 1.13786 
0.01 0.54 0.532663 1.206 -0.000399678 0.300115 0.88814 1.13765 
0.01 0.545 0.532617 1.206 -0.000321872 0.300079 0.888125 1.13752 
0.01 0.55 0.532598 1.206 -0.000289517 0.300064 0.888119 1.13747 