TITLE=DGSolution
VARIABLES=X Y rho u v pre c E 
ZONE T=TA, I=201, J=201, DATAPACKING = POINT
0 0 0.138 1.206 1.206 0.029 0.542405 0.273212 
0 0.005 0.138 1.206 1.206 0.029 0.542405 0.273212 
0 0.01 0.138 1.206 1.206 0.029 0.542405 0.273212 
0 0.015 0.138 1.206 1.206 0.029 0.542405 0.273212 
0 0.02 0.138 1.206 1.206 0.029 0.542405 0.273212 
0 0.025 0.138 1.206 1.206 0.029 0.542405 0.273212 
0 0.03 0.138 1.206 1.206 0.029 0.542405 0.273212 
0 0.035 0.138 1.206 1.206 0.029 0.542405 0.273212 
0 0.04 0.138 1.206 1.206 0.029 0.542405 0.273212 
0 0.045 0.138 1.206 1.206 0.029 0.542405 0.273212 
0 0.05 0.138 1.206 1.206 0.029 0.542405 0.273212 
0 0.055 0.138 1.206 1.206 0.029 0.542405 0.273212 
0 0.06 0.138 1.206 1.206 0.029 0.542405 0.273212 
0 0.065 0.138 1.206 1.206 0.029 0.542405 0.273212 
0 0.07 0.138 1.206 1.206 0.029 0.542405 0.273212 
0 0.075 0.138 1.206 1.206 0.029 0.542405 0.273212 
0 0.08 0.138 1.206 1.206 0.029 0.542405 0.273212 
0 0.085 0.138 1.206 1.206 0.029 0.542405 0.273212 
0 0.09 0.138 1.206 1.206 0.029 0.542405 0.273212 
0 0.095 0.138 1.206 1.206 0.029 0.542405 0.273212 
0 0.1 0.138 1.206 1.206 0.029 0.542405 0.273212 
0 0.105 0.138 1.206 1.206 0.029 0.542405 0.273212 
0 0.11 0.138 1.206 1.206 0.029 0.542405 0.273212 
0 0.115 0.138 1.206 1.206 0.029 0.542405 0.273212 
0 0.12 0.138 1.206 1.206 0.029 0.542405 0.273212 
0 0.125 0.138 1.206 1.206 0.029 0.542405 0.273212 
0 0.13 0.138 1.206 1.206 0.029 0.542405 0.273212 
0 0.135 0.138 1.206 1.206 0.029 0.542405 0.273212 
0 0.14 0.138 1.206 1.206 0.029 0.542405 0.273212 
0 0.145 0.138 1.206 1.206 0.029 0.542405 0.273212 
0 0.15 0.138 1.206 1.206 0.029 0.542405 0.273212 
0 0.155 0.138 1.206 1.206 0.029 0.542405 0.273212 
0 0.16 0.138 1.206 1.206 0.029 0.542405 0.273212 
0 0.165 0.138 1.206 1.206 0.029 0.542405 0.273212 
0 0.17 0.138 1.206 1.206 0.029 0.542405 0.273212 
0 0.175 0.138 1.206 1.206 0.029 0.542405 0.273212 
0 0.18 0.138 1.206 1.206 0.029 0.542405 0.273212 
0 0.185 0.138 1.206 1.206 0.029 0.542405 0.273212 
0 0.19 0.138 1.206 1.206 0.029 0.542405 0.273212 
0 0.195 0.138 1.206 1.206 0.029 0.542405 0.273212 
0 0.2 0.138 1.206 1.206 0.029 0.542405 0.273212 
0 0.205 0.138 1.206 1.206 0.029 0.542405 0.273212 
0 0.21 0.138 1.206 1.206 0.029 0.542405 0.273212 
0 0.215 0.138 1.206 1.206 0.029 0.542405 0.273212 
0 0.22 0.138 1.206 1.206 0.029 0.542405 0.273212 
0 0.225 0.138 1.206 1.206 0.029 0.542405 0.273212 
0 0.23 0.138 1.206 1.206 0.029 0.542405 0.273212 
0 0.235 0.138 1.206 1.206 0.029 0.542405 0.273212 
0 0.24 0.138 1.206 1.206 0.029 0.542405 0.273212 
0 0.245 0.138 1.206 1.206 0.029 0.542405 0.273212 
0 0.25 0.138 1.206 1.206 0.029 0.542405 0.273212 
0 0.255 0.138 1.206 1.206 0.029 0.542405 0.273212 
0 0.26 0.138 1.206 1.206 0.029 0.542405 0.273212 
0 0.265 0.138 1.206 1.206 0.029 0.542405 0.273212 
0 0.27 0.138 1.206 1.206 0.029 0.542405 0.273212 
0 0.275 0.138 1.206 1.206 0.029 0.542405 0.273212 
0 0.28 0.138 1.206 1.206 0.029 0.542405 0.273212 
0 0.285 0.138 1.206 1.206 0.029 0.542405 0.273212 
0 0.29 0.138 1.206 1.206 0.029 0.542405 0.273212 
0 0.295 0.138 1.206 1.206 0.029 0.542405 0.273212 
0 0.3 0.138 1.206 1.206 0.029 0.542405 0.273212 
0 0.305 0.138 1.206 1.206 0.029 0.542405 0.273212 
0 0.31 0.138 1.206 1.206 0.029 0.542405 0.273212 
0 0.315 0.138 1.206 1.206 0.029 0.542405 0.273212 
0 0.32 0.138 1.206 1.206 0.029 0.542405 0.273212 
0 0.325 0.138 1.206 1.206 0.029 0.542405 0.273212 
0 0.33 0.138 1.206 1.206 0.029 0.542405 0.273212 
0 0.335 0.138 1.206 1.206 0.029 0.542405 0.273212 
0 0.34 0.138 1.206 1.206 0.029 0.542405 0.273212 
0 0.345 0.138 1.206 1.206 0.029 0.542405 0.273212 
0 0.35 0.138 1.206 1.206 0.029 0.542405 0.273212 
0 0.355 0.138 1.206 1.206 0.029 0.542405 0.273212 
0 0.36 0.138 1.206 1.206 0.029 0.542405 0.273212 
0 0.365 0.138 1.206 1.206 0.029 0.542405 0.273212 
0 0.37 0.138 1.206 1.206 0.029 0.542405 0.273212 
0 0.375 0.138 1.206 1.206 0.029 0.542405 0.273212 
0 0.38 0.138 1.206 1.206 0.029 0.542405 0.273212 
0 0.385 0.138 1.206 1.206 0.029 0.542405 0.273212 
0 0.39 0.138 1.206 1.206 0.029 0.542405 0.273212 
0 0.395 0.138 1.206 1.206 0.029 0.542405 0.273212 
0 0.4 0.138 1.206 1.206 0.029 0.542405 0.273212 
0 0.405 0.138 1.206 1.206 0.029 0.542405 0.273212 
0 0.41 0.138 1.206 1.206 0.029 0.542405 0.273212 
0 0.415 0.138 1.206 1.206 0.029 0.542405 0.273212 
0 0.42 0.138 1.206 1.206 0.029 0.542405 0.273212 
0 0.425 0.138 1.206 1.206 0.029 0.542405 0.273212 
0 0.43 0.138 1.206 1.206 0.029 0.542405 0.273212 
0 0.435 0.138 1.206 1.206 0.0290002 0.542405 0.273213 
0 0.44 0.138008 1.206 1.20595 0.0290029 0.542416 0.273223 
0 0.445 0.138138 1.206 1.20514 0.0290546 0.542644 0.273407 
0 0.45 0.140135 1.206 1.19027 0.0300266 0.547701 0.276244 
0 0.455 0.166179 1.206 0.999581 0.0474888 0.632517 0.32259 
0 0.46 0.375967 1.206 0.244545 0.193106 0.847983 0.767417 
0 0.465 0.522148 1.206 0.00552283 0.29251 0.8856 1.111 
0 0.47 0.532106 1.206 -0.00116043 0.299938 0.888343 1.1368 
0 0.475 0.533883 1.206 0.00224108 0.301174 0.88869 1.14119 
0 0.48 0.534666 1.206 0.00316726 0.301685 0.888792 1.14303 
0 0.485 0.532816 1.206 -0.000209653 0.300177 0.888104 1.13791 
0 0.49 0.530879 1.206 -0.00312333 0.298716 0.887555 1.13286 
0 0.495 0.531731 1.206 -0.00221457 0.299352 0.887787 1.13507 
0 0.5 0.53292 1.206 -0.000342726 0.300336 0.888254 1.13839 
0 0.505 0.533515 1.206 0.000475726 0.300811 0.888459 1.14001 
0 0.51 0.533315 1.206 -0.000190236 0.300639 0.888371 1.13943 
0 0.515 0.532879 1.206 -0.00101469 0.300295 0.888226 1.13826 
0 0.52 0.533064 1.206 -0.000815107 0.300413 0.888248 1.13869 
0 0.525 0.533357 1.206 -0.000124074 0.300666 0.888377 1.13953 
0 0.53 0.533163 1.206 -0.000197788 0.300535 0.888345 1.13906 
0 0.535 0.532085 1.206 -0.0017597 0.299667 0.88796 1.13611 
0 0.54 0.531466 1.206 -0.00269021 0.299162 0.887727 1.1344 
0 0.545 0.532316 1.206 -0.00128033 0.299815 0.887986 1.13665 
0 0.55 0.53316 1.206 0.00062272 0.300555 0.888377 1.13911 
0 0.555 0.533749 1.206 0.00156842 0.301002 0.888547 1.14066 
0 0.56 0.533308 1.206 0.000434382 0.300586 0.888299 1.1393 
0 0.565 0.531787 1.206 -0.00149437 0.29946 0.887901 1.13538 
0 0.57 0.532039 1.206 -0.00131259 0.299617 0.887923 1.13595 
0 0.575 0.532637 1.206 -0.000344895 0.300071 0.888097 1.13752 
0 0.58 0.53282 1.206 5.66209e-06 0.300229 0.888178 1.13805 
0 0.585 0.532815 1.206 4.75176e-06 0.300236 0.888193 1.13806 
0 0.59 0.532791 1.206 -9.20038e-06 0.300233 0.888208 1.13804 
0 0.595 0.532782 1.206 -3.93559e-05 0.300233 0.888216 1.13803 
0 0.6 0.532781 1.206 -0.000100075 0.300229 0.888211 1.13802 
0 0.605 0.532701 1.206 -0.000288659 0.300152 0.888162 1.13777 
0 0.61 0.532261 1.206 -0.00105798 0.2998 0.888009 1.13657 
0 0.615 0.531907 1.206 -0.00170896 0.299518 0.887886 1.13561 
0 0.62 0.532289 1.206 -0.00115449 0.299806 0.887995 1.13661 
0 0.625 0.532918 1.206 -4.88357e-05 0.300317 0.888227 1.13834 
0 0.63 0.533233 1.206 0.00064738 0.300588 0.888364 1.13925 
0 0.635 0.533178 1.206 0.000325309 0.300505 0.888288 1.139 
0 0.64 0.532404 1.206 -0.000710517 0.29992 0.888067 1.13697 
0 0.645 0.532307 1.206 -0.000983232 0.299824 0.888006 1.13666 
0 0.65 0.53252 1.206 -0.000667145 0.299988 0.888071 1.13723 
0 0.655 0.532774 1.206 -0.000250451 0.300195 0.888166 1.13793 
0 0.66 0.532875 1.206 -6.15904e-05 0.300285 0.888216 1.13823 
0 0.665 0.532874 1.206 -4.30804e-05 0.300292 0.888225 1.13824 
0 0.67 0.532861 1.206 -5.99791e-05 0.30028 0.88822 1.13821 
0 0.675 0.532844 1.206 -0.00013597 0.30026 0.888204 1.13814 
0 0.68 0.532749 1.206 -0.000362882 0.300179 0.888164 1.13787 
0 0.685 0.532421 1.206 -0.000981191 0.29992 0.888054 1.13699 
0 0.69 0.532128 1.206 -0.00152358 0.29969 0.887957 1.1362 
0 0.695 0.532234 1.206 -0.0013604 0.299775 0.887994 1.13649 
0 0.7 0.532759 1.206 -0.000509712 0.300177 0.888151 1.13787 
0 0.705 0.533079 1.206 0.000176792 0.300444 0.888281 1.13878 
0 0.71 0.533135 1.206 0.000249336 0.300475 0.888279 1.13889 
0 0.715 0.53276 1.206 -0.000254619 0.300182 0.888159 1.13789 
0 0.72 0.532484 1.206 -0.000726115 0.299963 0.888065 1.13714 
0 0.725 0.532549 1.206 -0.000711995 0.300006 0.888074 1.1373 
0 0.73 0.532716 1.206 -0.000493561 0.300134 0.888125 1.13774 
0 0.735 0.532876 1.206 -0.000251644 0.300254 0.888169 1.13815 
0 0.74 0.532958 1.206 -0.000120808 0.300303 0.888173 1.13833 
0 0.745 0.532985 1.206 -8.32784e-05 0.300301 0.888148 1.13835 
0 0.75 0.532983 1.206 -9.60977e-05 0.300281 0.888119 1.1383 
0 0.755 0.532915 1.206 -0.000265419 0.300232 0.888104 1.13813 
0 0.76 0.532648 1.206 -0.000761161 0.300057 0.888067 1.13749 
0 0.765 0.532229 1.206 -0.00139319 0.299799 0.888035 1.13654 
0 0.77 0.53206 1.206 -0.00150365 0.299775 0.88814 1.13636 
0 0.775 0.532139 1.206 -0.000863894 0.300058 0.888493 1.13713 
0 0.78 0.531432 1.206 -8.09315e-05 0.300314 0.889463 1.13725 
0 0.785 0.528981 1.206 9.8896e-05 0.300442 0.891712 1.13579 
0 0.79 0.525866 1.206 -8.9053e-05 0.300311 0.894153 1.1332 
0 0.795 0.524341 1.206 -0.000500074 0.300139 0.895196 1.13166 
0 0.8 0.525324 1.206 -0.000756938 0.300025 0.894188 1.13209 
0 0.805 0.528194 1.206 -0.000640079 0.300102 0.891871 1.13437 
0 0.81 0.530792 1.206 -0.000473251 0.300185 0.889808 1.13646 
0 0.815 0.531948 1.206 -0.000241759 0.300299 0.889009 1.13759 
0 0.82 0.532305 1.206 -0.00014405 0.30033 0.888758 1.13793 
0 0.825 0.532478 1.206 -0.000101752 0.300328 0.888609 1.13805 
0 0.83 0.532544 1.206 -0.0001589 0.300294 0.888504 1.13801 
0 0.835 0.532428 1.206 -0.000518722 0.30015 0.888388 1.13757 
0 0.84 0.532198 1.206 -0.00107507 0.299938 0.888266 1.13687 
0 0.845 0.532071 1.206 -0.00141023 0.299825 0.888205 1.13649 
0 0.85 0.532183 1.206 -0.00126439 0.299911 0.888239 1.13679 
0 0.855 0.532499 1.206 -0.000694687 0.300161 0.888345 1.13765 
0 0.86 0.532772 1.206 -0.000159871 0.300375 0.888434 1.13838 
0 0.865 0.532778 1.206 -7.25358e-05 0.300377 0.888432 1.13839 
0 0.87 0.532612 1.206 -0.000312232 0.300242 0.888371 1.13793 
0 0.875 0.532459 1.206 -0.000588951 0.300118 0.888315 1.13751 
0 0.88 0.532449 1.206 -0.000657754 0.300108 0.888308 1.13748 
0 0.885 0.532536 1.206 -0.000553627 0.30018 0.888342 1.13772 
0 0.89 0.532635 1.206 -0.000394494 0.300266 0.888387 1.13801 
0 0.895 0.5327 1.206 -0.00025474 0.300325 0.888421 1.1382 
0 0.9 0.532728 1.206 -0.000161735 0.300348 0.88843 1.13828 
0 0.905 0.532718 1.206 -0.000141991 0.300332 0.888415 1.13823 
0 0.91 0.532622 1.206 -0.000330005 0.300248 0.888372 1.13795 
0 0.915 0.532404 1.206 -0.000800378 0.30007 0.888289 1.13735 
0 0.92 0.532185 1.206 -0.00128209 0.299894 0.888212 1.13675 
0 0.925 0.532148 1.206 -0.00140777 0.299871 0.888208 1.13667 
0 0.93 0.532358 1.206 -0.00102578 0.300049 0.888297 1.13726 
0 0.935 0.532661 1.206 -0.00042193 0.300299 0.888414 1.13811 
0 0.94 0.532789 1.206 -0.000127283 0.300401 0.888458 1.13846 
0 0.945 0.5327 1.206 -0.000247188 0.300322 0.888415 1.13819 
0 0.95 0.532546 1.206 -0.000507799 0.300189 0.888347 1.13775 
0 0.955 0.532458 1.206 -0.000692646 0.300111 0.888306 1.13749 
0 0.96 0.532483 1.206 -0.000679954 0.300132 0.888316 1.13756 
0 0.965 0.532574 1.206 -0.000532948 0.300214 0.888361 1.13783 
0 0.97 0.532666 1.206 -0.000355651 0.300298 0.888408 1.13811 
0 0.975 0.532735 1.206 -0.000212806 0.300353 0.888433 1.1383 
0 0.98 0.53277 1.206 -0.00013868 0.300371 0.88843 1.13837 
0 0.985 0.53274 1.206 -0.000190389 0.300338 0.888407 1.13826 
0 0.99 0.532563 1.206 -0.000535909 0.300201 0.888352 1.13779 
0 0.995 0.532194 1.206 -0.00121784 0.299923 0.888246 1.13683 
0 1 0.5324 1.206 -0.00111947 0.300039 0.888248 1.13727 
0.005 0 0.138 1.206 1.206 0.029 0.542405 0.273212 
0.005 0.005 0.138 1.206 1.206 0.029 0.542405 0.273212 
0.005 0.01 0.138 1.206 1.206 0.029 0.542405 0.273212 
0.005 0.015 0.138 1.206 1.206 0.029 0.542405 0.273212 
0.005 0.02 0.138 1.206 1.206 0.029 0.542405 0.273212 
0.005 0.025 0.138 1.206 1.206 0.029 0.542405 0.273212 
0.005 0.03 0.138 1.206 1.206 0.029 0.542405 0.273212 
0.005 0.035 0.138 1.206 1.206 0.029 0.542405 0.273212 
0.005 0.04 0.138 1.206 1.206 0.029 0.542405 0.273212 
0.005 0.045 0.138 1.206 1.206 0.029 0.542405 0.273212 
0.005 0.05 0.138 1.206 1.206 0.029 0.542405 0.273212 
0.005 0.055 0.138 1.206 1.206 0.029 0.542405 0.273212 
0.005 0.06 0.138 1.206 1.206 0.029 0.542405 0.273212 
0.005 0.065 0.138 1.206 1.206 0.029 0.542405 0.273212 
0.005 0.07 0.138 1.206 1.206 0.029 0.542405 0.273212 
0.005 0.075 0.138 1.206 1.206 0.029 0.542405 0.273212 
0.005 0.08 0.138 1.206 1.206 0.029 0.542405 0.273212 
0.005 0.085 0.138 1.206 1.206 0.029 0.542405 0.273212 
0.005 0.09 0.138 1.206 1.206 0.029 0.542405 0.273212 
0.005 0.095 0.138 1.206 1.206 0.029 0.542405 0.273212 
0.005 0.1 0.138 1.206 1.206 0.029 0.542405 0.273212 
0.005 0.105 0.138 1.206 1.206 0.029 0.542405 0.273212 
0.005 0.11 0.138 1.206 1.206 0.029 0.542405 0.273212 
0.005 0.115 0.138 1.206 1.206 0.029 0.542405 0.273212 
0.005 0.12 0.138 1.206 1.206 0.029 0.542405 0.273212 
0.005 0.125 0.138 1.206 1.206 0.029 0.542405 0.273212 
0.005 0.13 0.138 1.206 1.206 0.029 0.542405 0.273212 
0.005 0.135 0.138 1.206 1.206 0.029 0.542405 0.273212 
0.005 0.14 0.138 1.206 1.206 0.029 0.542405 0.273212 
0.005 0.145 0.138 1.206 1.206 0.029 0.542405 0.273212 
0.005 0.15 0.138 1.206 1.206 0.029 0.542405 0.273212 
0.005 0.155 0.138 1.206 1.206 0.029 0.542405 0.273212 
0.005 0.16 0.138 1.206 1.206 0.029 0.542405 0.273212 
0.005 0.165 0.138 1.206 1.206 0.029 0.542405 0.273212 
0.005 0.17 0.138 1.206 1.206 0.029 0.542405 0.273212 
0.005 0.175 0.138 1.206 1.206 0.029 0.542405 0.273212 
0.005 0.18 0.138 1.206 1.206 0.029 0.542405 0.273212 
0.005 0.185 0.138 1.206 1.206 0.029 0.542405 0.273212 
0.005 0.19 0.138 1.206 1.206 0.029 0.542405 0.273212 
0.005 0.195 0.138 1.206 1.206 0.029 0.542405 0.273212 
0.005 0.2 0.138 1.206 1.206 0.029 0.542405 0.273212 
0.005 0.205 0.138 1.206 1.206 0.029 0.542405 0.273212 
0.005 0.21 0.138 1.206 1.206 0.029 0.542405 0.273212 
0.005 0.215 0.138 1.206 1.206 0.029 0.542405 0.273212 
0.005 0.22 0.138 1.206 1.206 0.029 0.542405 0.273212 
0.005 0.225 0.138 1.206 1.206 0.029 0.542405 0.273212 
0.005 0.23 0.138 1.206 1.206 0.029 0.542405 0.273212 
0.005 0.235 0.138 1.206 1.206 0.029 0.542405 0.273212 
0.005 0.24 0.138 1.206 1.206 0.029 0.542405 0.273212 
0.005 0.245 0.138 1.206 1.206 0.029 0.542405 0.273212 
0.005 0.25 0.138 1.206 1.206 0.029 0.542405 0.273212 
0.005 0.255 0.138 1.206 1.206 0.029 0.542405 0.273212 
0.005 0.26 0.138 1.206 1.206 0.029 0.542405 0.273212 
0.005 0.265 0.138 1.206 1.206 0.029 0.542405 0.273212 
0.005 0.27 0.138 1.206 1.206 0.029 0.542405 0.273212 
0.005 0.275 0.138 1.206 1.206 0.029 0.542405 0.273212 
0.005 0.28 0.138 1.206 1.206 0.029 0.542405 0.273212 
0.005 0.285 0.138 1.206 1.206 0.029 0.542405 0.273212 
0.005 0.29 0.138 1.206 1.206 0.029 0.542405 0.273212 
0.005 0.295 0.138 1.206 1.206 0.029 0.542405 0.273212 
0.005 0.3 0.138 1.206 1.206 0.029 0.542405 0.273212 
0.005 0.305 0.138 1.206 1.206 0.029 0.542405 0.273212 
0.005 0.31 0.138 1.206 1.206 0.029 0.542405 0.273212 
0.005 0.315 0.138 1.206 1.206 0.029 0.542405 0.273212 
0.005 0.32 0.138 1.206 1.206 0.029 0.542405 0.273212 
0.005 0.325 0.138 1.206 1.206 0.029 0.542405 0.273212 
0.005 0.33 0.138 1.206 1.206 0.029 0.542405 0.273212 
0.005 0.335 0.138 1.206 1.206 0.029 0.542405 0.273212 
0.005 0.34 0.138 1.206 1.206 0.029 0.542405 0.273212 
0.005 0.345 0.138 1.206 1.206 0.029 0.542405 0.273212 
0.005 0.35 0.138 1.206 1.206 0.029 0.542405 0.273212 
0.005 0.355 0.138 1.206 1.206 0.029 0.542405 0.273212 
0.005 0.36 0.138 1.206 1.206 0.029 0.542405 0.273212 
0.005 0.365 0.138 1.206 1.206 0.029 0.542405 0.273212 
0.005 0.37 0.138 1.206 1.206 0.029 0.542405 0.273212 
0.005 0.375 0.138 1.206 1.206 0.029 0.542405 0.273212 
0.005 0.38 0.138 1.206 1.206 0.029 0.542405 0.273212 
0.005 0.385 0.138 1.206 1.206 0.029 0.542405 0.273212 
0.005 0.39 0.138 1.206 1.206 0.029 0.542405 0.273212 
0.005 0.395 0.138 1.206 1.206 0.029 0.542405 0.273212 
0.005 0.4 0.138 1.206 1.206 0.029 0.542405 0.273212 
0.005 0.405 0.138 1.206 1.206 0.029 0.542405 0.273212 
0.005 0.41 0.138 1.206 1.206 0.029 0.542405 0.273212 
0.005 0.415 0.138 1.206 1.206 0.029 0.542405 0.273212 
0.005 0.42 0.138 1.206 1.206 0.029 0.542405 0.273212 
0.005 0.425 0.138 1.206 1.206 0.029 0.542405 0.273212 
0.005 0.43 0.138 1.206 1.206 0.029 0.542405 0.273212 
0.005 0.435 0.138 1.206 1.206 0.0290002 0.542405 0.273213 
0.005 0.44 0.138008 1.206 1.20595 0.0290029 0.542416 0.273223 
0.005 0.445 0.138138 1.206 1.20514 0.0290546 0.542644 0.273407 
0.005 0.45 0.140135 1.206 1.19027 0.0300266 0.547701 0.276244 
0.005 0.455 0.166179 1.206 0.999581 0.0474888 0.632517 0.32259 
0.005 0.46 0.375967 1.206 0.244545 0.193106 0.847983 0.767417 
0.005 0.465 0.522148 1.206 0.00552283 0.29251 0.8856 1.111 
0.005 0.47 0.532106 1.206 -0.00116043 0.299938 0.888343 1.1368 
0.005 0.475 0.533883 1.206 0.00224108 0.301174 0.88869 1.14119 
0.005 0.48 0.534666 1.206 0.00316726 0.301685 0.888792 1.14303 
0.005 0.485 0.532816 1.206 -0.000209653 0.300177 0.888104 1.13791 
0.005 0.49 0.530879 1.206 -0.00312333 0.298716 0.887555 1.13286 
0.005 0.495 0.531731 1.206 -0.00221457 0.299352 0.887787 1.13507 
0.005 0.5 0.53292 1.206 -0.000342726 0.300336 0.888254 1.13839 
0.005 0.505 0.533515 1.206 0.000475726 0.300811 0.888459 1.14001 
0.005 0.51 0.533315 1.206 -0.000190236 0.300639 0.888371 1.13943 
0.005 0.515 0.532879 1.206 -0.00101469 0.300295 0.888226 1.13826 
0.005 0.52 0.533064 1.206 -0.000815107 0.300413 0.888248 1.13869 
0.005 0.525 0.533357 1.206 -0.000124074 0.300666 0.888377 1.13953 
0.005 0.53 0.533163 1.206 -0.000197788 0.300535 0.888345 1.13906 
0.005 0.535 0.532085 1.206 -0.0017597 0.299667 0.88796 1.13611 
0.005 0.54 0.531466 1.206 -0.00269021 0.299162 0.887727 1.1344 
0.005 0.545 0.532316 1.206 -0.00128033 0.299815 0.887986 1.13665 
0.005 0.55 0.53316 1.206 0.00062272 0.300555 0.888377 1.13911 
0.005 0.555 0.533749 1.206 0.00156842 0.301002 0.888547 1.14066 
0.005 0.56 0.533308 1.206 0.000434382 0.300586 0.888299 1.1393 
0.005 0.565 0.531787 1.206 -0.00149437 0.29946 0.887901 1.13538 
0.005 0.57 0.532039 1.206 -0.00131259 0.299617 0.887923 1.13595 
0.005 0.575 0.532637 1.206 -0.000344895 0.300071 0.888097 1.13752 
0.005 0.58 0.53282 1.206 5.66209e-06 0.300229 0.888178 1.13805 
0.005 0.585 0.532815 1.206 4.75176e-06 0.300236 0.888193 1.13806 
0.005 0.59 0.532791 1.206 -9.20038e-06 0.300233 0.888208 1.13804 
0.005 0.595 0.532782 1.206 -3.93559e-05 0.300233 0.888216 1.13803 
0.005 0.6 0.532781 1.206 -0.000100075 0.300229 0.888211 1.13802 
0.005 0.605 0.532701 1.206 -0.000288659 0.300152 0.888162 1.13777 
0.005 0.61 0.532261 1.206 -0.00105798 0.2998 0.888009 1.13657 
0.005 0.615 0.531907 1.206 -0.00170896 0.299518 0.887886 1.13561 
0.005 0.62 0.532289 1.206 -0.00115449 0.299806 0.887995 1.13661 
0.005 0.625 0.532918 1.206 -4.88357e-05 0.300317 0.888227 1.13834 
0.005 0.63 0.533233 1.206 0.00064738 0.300588 0.888364 1.13925 
0.005 0.635 0.533178 1.206 0.000325309 0.300505 0.888288 1.139 
0.005 0.64 0.532404 1.206 -0.000710517 0.29992 0.888067 1.13697 
0.005 0.645 0.532307 1.206 -0.000983232 0.299824 0.888006 1.13666 
0.005 0.65 0.53252 1.206 -0.000667145 0.299988 0.888071 1.13723 
0.005 0.655 0.532774 1.206 -0.000250451 0.300195 0.888166 1.13793 
0.005 0.66 0.532875 1.206 -6.15904e-05 0.300285 0.888216 1.13823 
0.005 0.665 0.532874 1.206 -4.30804e-05 0.300292 0.888225 1.13824 
0.005 0.67 0.532861 1.206 -5.99791e-05 0.30028 0.88822 1.13821 
0.005 0.675 0.532844 1.206 -0.00013597 0.30026 0.888204 1.13814 
0.005 0.68 0.532749 1.206 -0.000362882 0.300179 0.888164 1.13787 
0.005 0.685 0.532421 1.206 -0.000981191 0.29992 0.888054 1.13699 
0.005 0.69 0.532128 1.206 -0.00152358 0.29969 0.887957 1.1362 
0.005 0.695 0.532234 1.206 -0.0013604 0.299775 0.887994 1.13649 
0.005 0.7 0.532759 1.206 -0.000509712 0.300177 0.888151 1.13787 
0.005 0.705 0.533079 1.206 0.000176792 0.300444 0.888281 1.13878 
0.005 0.71 0.533135 1.206 0.000249336 0.300475 0.888279 1.13889 
0.005 0.715 0.53276 1.206 -0.000254619 0.300182 0.888159 1.13789 
0.005 0.72 0.532484 1.206 -0.000726115 0.299963 0.888065 1.13714 
0.005 0.725 0.532549 1.206 -0.000711995 0.300006 0.888074 1.1373 
0.005 0.73 0.532716 1.206 -0.000493561 0.300134 0.888125 1.13774 
0.005 0.735 0.532876 1.206 -0.000251644 0.300254 0.888169 1.13815 
0.005 0.74 0.532958 1.206 -0.000120808 0.300303 0.888173 1.13833 
0.005 0.745 0.532985 1.206 -8.32784e-05 0.300301 0.888148 1.13835 
0.005 0.75 0.532983 1.206 -9.60977e-05 0.300281 0.888119 1.1383 
0.005 0.755 0.532915 1.206 -0.000265419 0.300232 0.888104 1.13813 
0.005 0.76 0.532648 1.206 -0.000761161 0.300057 0.888067 1.13749 
0.005 0.765 0.532229 1.206 -0.00139319 0.299799 0.888035 1.13654 
0.005 0.77 0.53206 1.206 -0.00150365 0.299775 0.88814 1.13636 
0.005 0.775 0.532139 1.206 -0.000863894 0.300058 0.888493 1.13713 
0.005 0.78 0.531432 1.206 -8.09315e-05 0.300314 0.889463 1.13725 
0.005 0.785 0.528981 1.206 9.8896e-05 0.300442 0.891712 1.13579 
0.005 0.79 0.525866 1.206 -8.9053e-05 0.300311 0.894153 1.1332 
0.005 0.795 0.524341 1.206 -0.000500074 0.300139 0.895196 1.13166 
0.005 0.8 0.525324 1.206 -0.000756938 0.300025 0.894188 1.13209 
0.005 0.805 0.528194 1.206 -0.000640079 0.300102 0.891871 1.13437 
0.005 0.81 0.530792 1.206 -0.000473251 0.300185 0.889808 1.13646 
0.005 0.815 0.531948 1.206 -0.000241759 0.300299 0.889009 1.13759 
0.005 0.82 0.532305 1.206 -0.00014405 0.30033 0.888758 1.13793 
0.005 0.825 0.532478 1.206 -0.000101752 0.300328 0.888609 1.13805 
0.005 0.83 0.532544 1.206 -0.0001589 0.300294 0.888504 1.13801 
0.005 0.835 0.532428 1.206 -0.000518722 0.30015 0.888388 1.13757 
0.005 0.84 0.532198 1.206 -0.00107507 0.299938 0.888266 1.13687 
0.005 0.845 0.532071 1.206 -0.00141023 0.299825 0.888205 1.13649 
0.005 0.85 0.532183 1.206 -0.00126439 0.299911 0.888239 1.13679 
0.005 0.855 0.532499 1.206 -0.000694687 0.300161 0.888345 1.13765 
0.005 0.86 0.532772 1.206 -0.000159871 0.300375 0.888434 1.13838 
0.005 0.865 0.532778 1.206 -7.25358e-05 0.300377 0.888432 1.13839 
0.005 0.87 0.532612 1.206 -0.000312232 0.300242 0.888371 1.13793 
0.005 0.875 0.532459 1.206 -0.000588951 0.300118 0.888315 1.13751 
0.005 0.88 0.532449 1.206 -0.000657754 0.300108 0.888308 1.13748 
0.005 0.885 0.532536 1.206 -0.000553627 0.30018 0.888342 1.13772 
0.005 0.89 0.532635 1.206 -0.000394494 0.300266 0.888387 1.13801 
0.005 0.895 0.5327 1.206 -0.00025474 0.300325 0.888421 1.1382 
0.005 0.9 0.532728 1.206 -0.000161735 0.300348 0.88843 1.13828 
0.005 0.905 0.532718 1.206 -0.000141991 0.300332 0.888415 1.13823 
0.005 0.91 0.532622 1.206 -0.000330005 0.300248 0.888372 1.13795 
0.005 0.915 0.532404 1.206 -0.000800378 0.30007 0.888289 1.13735 
0.005 0.92 0.532185 1.206 -0.00128209 0.299894 0.888212 1.13675 
0.005 0.925 0.532148 1.206 -0.00140777 0.299871 0.888208 1.13667 
0.005 0.93 0.532358 1.206 -0.00102578 0.300049 0.888297 1.13726 
0.005 0.935 0.532661 1.206 -0.00042193 0.300299 0.888414 1.13811 
0.005 0.94 0.532789 1.206 -0.000127283 0.300401 0.888458 1.13846 
0.005 0.945 0.5327 1.206 -0.000247188 0.300322 0.888415 1.13819 
0.005 0.95 0.532546 1.206 -0.000507799 0.300189 0.888347 1.13775 
0.005 0.955 0.532458 1.206 -0.000692646 0.300111 0.888306 1.13749 
0.005 0.96 0.532483 1.206 -0.000679954 0.300132 0.888316 1.13756 
0.005 0.965 0.532574 1.206 -0.000532948 0.300214 0.888361 1.13783 
0.005 0.97 0.532666 1.206 -0.000355651 0.300298 0.888408 1.13811 
0.005 0.975 0.532735 1.206 -0.000212806 0.300353 0.888433 1.1383 
0.005 0.98 0.53277 1.206 -0.00013868 0.300371 0.88843 1.13837 
0.005 0.985 0.53274 1.206 -0.000190389 0.300338 0.888407 1.13826 
0.005 0.99 0.532563 1.206 -0.000535909 0.300201 0.888352 1.13779 
0.005 0.995 0.532194 1.206 -0.00121784 0.299923 0.888246 1.13683 
0.005 1 0.5324 1.206 -0.00111947 0.300039 0.888248 1.13727 
0.01 0 0.138 1.206 1.206 0.029 0.542405 0.273212 
0.01 0.005 0.138 1.206 1.206 0.029 0.542405 0.273212 
0.01 0.01 0.138 1.206 1.206 0.029 0.542405 0.273212 
0.01 0.015 0.138 1.206 1.206 0.029 0.542405 0.273212 
0.01 0.02 0.138 1.206 1.206 0.029 0.542405 0.273212 
0.01 0.025 0.138 1.206 1.206 0.029 0.542405 0.273212 
0.01 0.03 0.138 1.206 1.206 0.029 0.542405 0.273212 
0.01 0.035 0.138 1.206 1.206 0.029 0.542405 0.273212 
0.01 0.04 0.138 1.206 1.206 0.029 0.542405 0.273212 
0.01 0.045 0.138 1.206 1.206 0.029 0.542405 0.273212 
0.01 0.05 0.138 1.206 1.206 0.029 0.542405 0.273212 
0.01 0.055 0.138 1.206 1.206 0.029 0.542405 0.273212 
0.01 0.06 0.138 1.206 1.206 0.029 0.542405 0.273212 
0.01 0.065 0.138 1.206 1.206 0.029 0.542405 0.273212 
0.01 0.07 0.138 1.206 1.206 0.029 0.542405 0.273212 
0.01 0.075 0.138 1.206 1.206 0.029 0.542405 0.273212 
0.01 0.08 0.138 1.206 1.206 0.029 0.542405 0.273212 
0.01 0.085 0.138 1.206 1.206 0.029 0.542405 0.273212 
0.01 0.09 0.138 1.206 1.206 0.029 0.542405 0.273212 
0.01 0.095 0.138 1.206 1.206 0.029 0.542405 0.273212 
0.01 0.1 0.138 1.206 1.206 0.029 0.542405 0.273212 
0.01 0.105 0.138 1.206 1.206 0.029 0.542405 0.273212 
0.01 0.11 0.138 1.206 1.206 0.029 0.542405 0.273212 
0.01 0.115 0.138 1.206 1.206 0.029 0.542405 0.273212 
0.01 0.12 0.138 1.206 1.206 0.029 0.542405 0.273212 
0.01 0.125 0.138 1.206 1.206 0.029 0.542405 0.273212 
0.01 0.13 0.138 1.206 1.206 0.029 0.542405 0.273212 
0.01 0.135 0.138 1.206 1.206 0.029 0.542405 0.273212 
0.01 0.14 0.138 1.206 1.206 0.029 0.542405 0.273212 
0.01 0.145 0.138 1.206 1.206 0.029 0.542405 0.273212 
0.01 0.15 0.138 1.206 1.206 0.029 0.542405 0.273212 
0.01 0.155 0.138 1.206 1.206 0.029 0.542405 0.273212 
0.01 0.16 0.138 1.206 1.206 0.029 0.542405 0.273212 
0.01 0.165 0.138 1.206 1.206 0.029 0.542405 0.273212 
0.01 0.17 0.138 1.206 1.206 0.029 0.542405 0.273212 
0.01 0.175 0.138 1.206 1.206 0.029 0.542405 0.273212 
0.01 0.18 0.138 1.206 1.206 0.029 0.542405 0.273212 
0.01 0.185 0.138 1.206 1.206 0.029 0.542405 0.273212 
0.01 0.19 0.138 1.206 1.206 0.029 0.542405 0.273212 
0.01 0.195 0.138 1.206 1.206 0.029 0.542405 0.273212 
0.01 0.2 0.138 1.206 1.206 0.029 0.542405 0.273212 
0.01 0.205 0.138 1.206 1.206 0.029 0.542405 0.273212 
0.01 0.21 0.138 1.206 1.206 0.029 0.542405 0.273212 
0.01 0.215 0.138 1.206 1.206 0.029 0.542405 0.273212 
0.01 0.22 0.138 1.206 1.206 0.029 0.542405 0.273212 
0.01 0.225 0.138 1.206 1.206 0.029 0.542405 0.273212 
0.01 0.23 0.138 1.206 1.206 0.029 0.542405 0.273212 
0.01 0.235 0.138 1.206 1.206 0.029 0.542405 0.273212 
0.01 0.24 0.138 1.206 1.206 0.029 0.542405 0.273212 
0.01 0.245 0.138 1.206 1.206 0.029 0.542405 0.273212 
0.01 0.25 0.138 1.206 1.206 0.029 0.542405 0.273212 
0.01 0.255 0.138 1.206 1.206 0.029 0.542405 0.273212 
0.01 0.26 0.138 1.206 1.206 0.029 0.542405 0.273212 
0.01 0.265 0.138 1.206 1.206 0.029 0.542405 0.273212 
0.01 0.27 0.138 1.206 1.206 0.029 0.542405 0.273212 
0.01 0.275 0.138 1.206 1.206 0.029 0.542405 0.273212 
0.01 0.28 0.138 1.206 1.206 0.029 0.542405 0.273212 
0.01 0.285 0.138 1.206 1.206 0.029 0.542405 0.273212 
0.01 0.29 0.138 1.206 1.206 0.029 0.542405 0.273212 
0.01 0.295 0.138 1.206 1.206 0.029 0.542405 0.273212 
0.01 0.3 0.138 1.206 1.206 0.029 0.542405 0.273212 
0.01 0.305 0.138 1.206 1.206 0.029 0.542405 0.273212 
0.01 0.31 0.138 1.206 1.206 0.029 0.542405 0.273212 
0.01 0.315 0.138 1.206 1.206 0.029 0.542405 0.273212 
0.01 0.32 0.138 1.206 1.206 0.029 0.542405 0.273212 
0.01 0.325 0.138 1.206 1.206 0.029 0.542405 0.273212 
0.01 0.33 0.138 1.206 1.206 0.029 0.542405 0.273212 
0.01 0.335 0.138 1.206 1.206 0.029 0.542405 0.273212 
0.01 0.34 0.138 1.206 1.206 0.029 0.542405 0.273212 
0.01 0.345 0.138 1.206 1.206 0.029 0.542405 0.273212 
0.01 0.35 0.138 1.206 1.206 0.029 0.542405 0.273212 
0.01 0.355 0.138 1.206 1.206 0.029 0.542405 0.273212 
0.01 0.36 0.138 1.206 1.206 0.029 0.542405 0.273212 
0.01 0.365 0.138 1.206 1.206 0.029 0.542405 0.273212 
0.01 0.37 0.138 1.206 1.206 0.029 0.542405 0.273212 
0.01 0.375 0.138 1.206 1.206 0.029 0.542405 0.273212 
0.01 0.38 0.138 1.206 1.206 0.029 0.542405 0.273212 
0.01 0.385 0.138 1.206 1.206 0.029 0.542405 0.273212 
0.01 0.39 0.138 1.206 1.206 0.029 0.542405 0.273212 
0.01 0.395 0.138 1.206 1.206 0.029 0.542405 0.273212 
0.01 0.4 0.138 1.206 1.206 0.029 0.542405 0.273212 
0.01 0.405 0.138 1.206 1.206 0.029 0.542405 0.273212 
0.01 0.41 0.138 1.206 1.206 0.029 0.542405 0.273212 
0.01 0.415 0.138 1.206 1.206 0.029 0.542405 0.273212 
0.01 0.42 0.138 1.206 1.206 0.029 0.542405 0.273212 
0.01 0.425 0.138 1.206 1.206 0.029 0.542405 0.273212 
0.01 0.43 0.138 1.206 1.206 0.029 0.542405 0.273212 
0.01 0.435 0.138 1.206 1.206 0.0290002 0.542405 0.273213 
0.01 0.44 0.138008 1.206 1.20595 0.0290029 0.542416 0.273223 
0.01 0.445 0.138138 1.206 1.20514 0.0290546 0.542644 0.273407 
0.01 0.45 0.140135 1.206 1.19027 0.0300266 0.547701 0.276244 
0.01 0.455 0.166179 1.206 0.999581 0.0474888 0.632517 0.32259 
0.01 0.46 0.375967 1.206 0.244545 0.193106 0.847983 0.767417 
0.01 0.465 0.522148 1.206 0.00552283 0.29251 0.8856 1.111 
0.01 0.47 0.532106 1.206 -0.00116043 0.299938 0.888343 1.1368 
0.01 0.475 0.533883 1.206 0.00224108 0.301174 0.88869 1.14119 
0.01 0.48 0.534666 1.206 0.00316726 0.301685 0.888792 1.14303 
0.01 0.485 0.532816 1.206 -0.000209653 0.300177 0.888104 1.13791 
0.01 0.49 0.530879 1.206 -0.00312333 0.298716 0.887555 1.13286 
0.01 0.495 0.531731 1.206 -0.00221457 0.299352 0.887787 1.13507 
0.01 0.5 0.53292 1.206 -0.000342726 0.300336 0.888254 1.13839 
0.01 0.505 0.533515 1.206 0.000475726 0.300811 0.888459 1.14001 
0.01 0.51 0.533315 1.206 -0.000190236 0.300639 0.888371 1.13943 
0.01 0.515 0.532879 1.206 -0.00101469 0.300295 0.888226 1.13826 
0.01 0.52 0.533064 1.206 -0.000815107 0.300413 0.888248 1.13869 
0.01 0.525 0.533357 1.206 -0.000124074 0.300666 0.888377 1.13953 
0.01 0.53 0.533163 1.206 -0.000197788 0.300535 0.888345 1.13906 
0.01 0.535 0.532085 1.206 -0.0017597 0.299667 0.88796 1.13611 
0.01 0.54 0.531466 1.206 -0.00269021 0.299162 0.887727 1.1344 
0.01 0.545 0.532316 1.206 -0.00128033 0.299815 0.887986 1.13665 
0.01 0.55 0.53316 1.206 0.00062272 0.300555 0.888377 1.13911 
0.01 0.555 0.533749 1.206 0.00156842 0.301002 0.888547 1.14066 
0.01 0.56 0.533308 1.206 0.000434382 0.300586 0.888299 1.1393 