TITLE=DGSolution
VARIABLES=X Y rho u v pre c E 
ZONE T=TA, I=201, J=201, DATAPACKING = POINT
0 0 0.138 1.206 1.206 0.029 0.542405 0.273212 
0 0.005 0.138 1.206 1.206 0.029 0.542405 0.273212 
0 0.01 0.138 1.206 1.206 0.029 0.542405 0.273212 
0 0.015 0.138 1.206 1.206 0.029 0.542405 0.273212 
0 0.02 0.138 1.206 1.206 0.029 0.542405 0.273212 
0 0.025 0.138 1.206 1.206 0.029 0.542405 0.273212 
0 0.03 0.138 1.206 1.206 0.029 0.542405 0.273212 
0 0.035 0.138 1.206 1.206 0.029 0.542405 0.273212 
0 0.04 0.138 1.206 1.206 0.029 0.542405 0.273212 
0 0.045 0.138 1.206 1.206 0.029 0.542405 0.273212 
0 0.05 0.138 1.206 1.206 0.029 0.542405 0.273212 
0 0.055 0.138 1.206 1.206 0.029 0.542405 0.273212 
0 0.06 0.138 1.206 1.206 0.029 0.542405 0.273212 
0 0.065 0.138 1.206 1.206 0.029 0.542405 0.273212 
0 0.07 0.138 1.206 1.206 0.029 0.542405 0.273212 
0 0.075 0.138 1.206 1.206 0.029 0.542405 0.273212 
0 0.08 0.138 1.206 1.206 0.029 0.542405 0.273212 
0 0.085 0.138 1.206 1.206 0.029 0.542405 0.273212 
0 0.09 0.138 1.206 1.206 0.029 0.542405 0.273212 
0 0.095 0.138 1.206 1.206 0.029 0.542405 0.273212 
0 0.1 0.138 1.206 1.206 0.029 0.542405 0.273212 
0 0.105 0.138 1.206 1.206 0.029 0.542405 0.273212 
0 0.11 0.138 1.206 1.206 0.029 0.542405 0.273212 
0 0.115 0.138 1.206 1.206 0.029 0.542405 0.273212 
0 0.12 0.138 1.206 1.206 0.029 0.542405 0.273212 
0 0.125 0.138 1.206 1.206 0.029 0.542405 0.273212 
0 0.13 0.138 1.206 1.206 0.029 0.542405 0.273212 
0 0.135 0.138 1.206 1.206 0.029 0.542405 0.273212 
0 0.14 0.138 1.206 1.206 0.029 0.542405 0.273212 
0 0.145 0.138 1.206 1.206 0.029 0.542405 0.273212 
0 0.15 0.138 1.206 1.206 0.029 0.542405 0.273212 
0 0.155 0.138 1.206 1.206 0.029 0.542405 0.273212 
0 0.16 0.138 1.206 1.206 0.029 0.542405 0.273212 
0 0.165 0.138 1.206 1.206 0.029 0.542405 0.273212 
0 0.17 0.138 1.206 1.206 0.029 0.542405 0.273212 
0 0.175 0.138 1.206 1.206 0.029 0.542405 0.273212 
0 0.18 0.138 1.206 1.206 0.029 0.542405 0.273212 
0 0.185 0.138 1.206 1.206 0.029 0.542405 0.273212 
0 0.19 0.138 1.206 1.206 0.029 0.542405 0.273212 
0 0.195 0.138 1.206 1.206 0.029 0.542405 0.273212 
0 0.2 0.138 1.206 1.206 0.029 0.542405 0.273212 
0 0.205 0.138 1.206 1.206 0.029 0.542405 0.273212 
0 0.21 0.138 1.206 1.206 0.029 0.542405 0.273212 
0 0.215 0.138 1.206 1.206 0.029 0.542405 0.273212 
0 0.22 0.138 1.206 1.206 0.029 0.542405 0.273212 
0 0.225 0.138 1.206 1.206 0.029 0.542405 0.273212 
0 0.23 0.138 1.206 1.206 0.029 0.542405 0.273212 
0 0.235 0.138 1.206 1.206 0.029 0.542405 0.273212 
0 0.24 0.138 1.206 1.206 0.029 0.542405 0.273212 
0 0.245 0.138 1.206 1.206 0.029 0.542405 0.273212 
0 0.25 0.138 1.206 1.206 0.029 0.542405 0.273212 
0 0.255 0.138 1.206 1.206 0.029 0.542405 0.273212 
0 0.26 0.138 1.206 1.206 0.029 0.542405 0.273212 
0 0.265 0.138 1.206 1.206 0.029 0.542405 0.273212 
0 0.27 0.138 1.206 1.206 0.029 0.542405 0.273212 
0 0.275 0.138 1.206 1.206 0.029 0.542405 0.273212 
0 0.28 0.138 1.206 1.206 0.029 0.542405 0.273212 
0 0.285 0.138 1.206 1.206 0.029 0.542405 0.273212 
0 0.29 0.138 1.206 1.206 0.029 0.542405 0.273212 
0 0.295 0.138 1.206 1.206 0.029 0.542405 0.273212 
0 0.3 0.138 1.206 1.206 0.029 0.542405 0.273212 
0 0.305 0.138 1.206 1.206 0.029 0.542405 0.273212 
0 0.31 0.138 1.206 1.206 0.029 0.542405 0.273212 
0 0.315 0.138 1.206 1.206 0.029 0.542405 0.273212 
0 0.32 0.138 1.206 1.206 0.029 0.542405 0.273212 
0 0.325 0.138 1.206 1.206 0.029 0.542405 0.273212 
0 0.33 0.138 1.206 1.206 0.029 0.542405 0.273212 
0 0.335 0.138 1.206 1.206 0.029 0.542405 0.273212 
0 0.34 0.138 1.206 1.206 0.029 0.542405 0.273212 
0 0.345 0.138 1.206 1.206 0.029 0.542405 0.273212 
0 0.35 0.138 1.206 1.206 0.029 0.542405 0.273212 
0 0.355 0.138 1.206 1.206 0.029 0.542405 0.273212 
0 0.36 0.138 1.206 1.206 0.029 0.542405 0.273212 
0 0.365 0.138 1.206 1.206 0.029 0.542405 0.273212 
0 0.37 0.138 1.206 1.206 0.029 0.542405 0.273212 
0 0.375 0.138 1.206 1.206 0.029 0.542405 0.273212 
0 0.38 0.138 1.206 1.206 0.029 0.542405 0.273212 
0 0.385 0.138 1.206 1.206 0.029 0.542405 0.273212 
0 0.39 0.138 1.206 1.206 0.029 0.542405 0.273212 
0 0.395 0.138 1.206 1.206 0.029 0.542405 0.273212 
0 0.4 0.138 1.206 1.206 0.029 0.542405 0.273212 
0 0.405 0.138 1.206 1.206 0.029 0.542405 0.273212 
0 0.41 0.138 1.206 1.206 0.029 0.542405 0.273212 
0 0.415 0.138 1.206 1.206 0.029 0.542405 0.273212 
0 0.42 0.138 1.206 1.206 0.029 0.542405 0.273212 
0 0.425 0.138 1.206 1.206 0.029 0.542405 0.273212 
0 0.43 0.138 1.206 1.206 0.029 0.542405 0.273212 
0 0.435 0.138 1.206 1.206 0.0290002 0.542405 0.273213 
0 0.44 0.138008 1.206 1.20595 0.029003 0.542417 0.273223 
0 0.445 0.138145 1.206 1.2051 0.0290572 0.542655 0.273416 
0 0.45 0.140221 1.206 1.18968 0.030064 0.547874 0.276362 
0 0.455 0.166357 1.206 0.999266 0.0475062 0.632293 0.3228 
0 0.46 0.377052 1.206 0.243782 0.19361 0.847866 0.769427 
0 0.465 0.521707 1.206 0.00597545 0.292278 0.885623 1.1101 
0 0.47 0.532211 1.206 -0.00105997 0.29999 0.888332 1.13701 
0 0.475 0.533819 1.206 0.00208768 0.30111 0.888648 1.14098 
0 0.48 0.534438 1.206 0.00285087 0.301528 0.888748 1.14247 
0 0.485 0.5328 1.206 -0.000179178 0.300186 0.888132 1.13793 
0 0.49 0.530964 1.206 -0.00299378 0.298787 0.88759 1.1331 
0 0.495 0.531751 1.206 -0.00220751 0.29936 0.887783 1.1351 
0 0.5 0.532942 1.206 -0.000336688 0.300341 0.888242 1.13842 
0 0.505 0.533525 1.206 0.000456429 0.30081 0.888449 1.14001 
0 0.51 0.533313 1.206 -0.000189066 0.300638 0.888373 1.13943 
0 0.515 0.532857 1.206 -0.00104334 0.300285 0.888231 1.13822 
0 0.52 0.53303 1.206 -0.000877937 0.300395 0.888248 1.13862 
0 0.525 0.533369 1.206 -0.000128566 0.300678 0.888385 1.13957 
0 0.53 0.53318 1.206 -0.000191746 0.300545 0.888346 1.1391 
0 0.535 0.532161 1.206 -0.00164017 0.299723 0.887979 1.13631 
0 0.54 0.531548 1.206 -0.00255998 0.299228 0.887757 1.13462 
0 0.545 0.532339 1.206 -0.00125665 0.299835 0.887996 1.13672 
0 0.55 0.533147 1.206 0.000562117 0.300543 0.88837 1.13907 
0 0.555 0.533699 1.206 0.00143629 0.300959 0.888526 1.14051 
0 0.56 0.533232 1.206 0.000304734 0.300532 0.888283 1.13911 
0 0.565 0.531793 1.206 -0.00152805 0.299463 0.8879 1.13539 
0 0.57 0.532049 1.206 -0.00131514 0.299623 0.887923 1.13597 
0 0.575 0.532618 1.206 -0.000377964 0.300057 0.888092 1.13747 
0 0.58 0.53282 1.206 8.89951e-06 0.30023 0.88818 1.13805 
0 0.585 0.532822 1.206 1.73502e-05 0.300242 0.888195 1.13808 
0 0.59 0.532805 1.206 -9.58202e-06 0.300242 0.88821 1.13807 
0 0.595 0.532786 1.206 -4.84878e-05 0.300237 0.888219 1.13805 
0 0.6 0.532778 1.206 -0.000119547 0.300227 0.88821 1.13801 
0 0.605 0.532695 1.206 -0.00031876 0.300148 0.888163 1.13775 
0 0.61 0.532292 1.206 -0.00104277 0.299826 0.888022 1.13666 
0 0.615 0.531965 1.206 -0.00165003 0.299563 0.887905 1.13576 
0 0.62 0.532322 1.206 -0.00113664 0.299832 0.888005 1.13669 
0 0.625 0.532934 1.206 -5.68039e-05 0.300328 0.888229 1.13838 
0 0.63 0.533228 1.206 0.000605716 0.300579 0.888356 1.13922 
0 0.635 0.533128 1.206 0.000226098 0.300465 0.888271 1.13886 
0 0.64 0.532391 1.206 -0.000764941 0.299908 0.888061 1.13693 
0 0.645 0.532356 1.206 -0.000948503 0.299862 0.888021 1.13679 
0 0.65 0.532549 1.206 -0.000660701 0.300014 0.888087 1.13732 
0 0.655 0.532789 1.206 -0.000275006 0.300212 0.888179 1.13798 
0 0.66 0.532875 1.206 -0.000117254 0.30029 0.888223 1.13824 
0 0.665 0.53288 1.206 -9.7176e-05 0.300297 0.888228 1.13826 
0 0.67 0.532871 1.206 -0.000108614 0.300284 0.888217 1.13822 
0 0.675 0.532841 1.206 -0.000157936 0.300253 0.888195 1.13812 
0 0.68 0.532737 1.206 -0.000369491 0.30017 0.888161 1.13784 
0 0.685 0.532422 1.206 -0.000950641 0.299923 0.888057 1.13699 
0 0.69 0.532131 1.206 -0.00148618 0.299694 0.887961 1.13621 
0 0.695 0.532245 1.206 -0.00133671 0.299783 0.887998 1.13652 
0 0.7 0.532793 1.206 -0.000489447 0.300201 0.88816 1.13796 
0 0.705 0.533119 1.206 0.000177938 0.300471 0.888287 1.13887 
0 0.71 0.533137 1.206 0.000173079 0.30047 0.888271 1.13888 
0 0.715 0.53274 1.206 -0.000323704 0.300165 0.88815 1.13783 
0 0.72 0.532479 1.206 -0.000741762 0.29996 0.888064 1.13713 
0 0.725 0.532548 1.206 -0.000684658 0.300011 0.888081 1.13731 
0 0.73 0.532722 1.206 -0.000476671 0.300145 0.888136 1.13777 
0 0.735 0.532892 1.206 -0.000264313 0.300269 0.888178 1.1382 
0 0.74 0.532971 1.206 -0.00015417 0.300313 0.888177 1.13837 
0 0.745 0.532993 1.206 -0.000119115 0.300308 0.88815 1.13837 
0 0.75 0.53298 1.206 -0.000127888 0.300281 0.888122 1.1383 
0 0.755 0.532902 1.206 -0.000262553 0.300226 0.888106 1.1381 
0 0.76 0.532636 1.206 -0.000708508 0.300054 0.888071 1.13748 
0 0.765 0.53222 1.206 -0.00134054 0.299795 0.888036 1.13653 
0 0.77 0.532051 1.206 -0.00150569 0.299761 0.888127 1.13632 
0 0.775 0.532201 1.206 -0.000851655 0.300077 0.88847 1.13722 
0 0.78 0.531596 1.206 -0.000138046 0.300333 0.889354 1.13742 
0 0.785 0.529091 1.206 9.67691e-05 0.300427 0.891597 1.13583 
0 0.79 0.525672 1.206 -0.000103982 0.300313 0.894321 1.13306 
0 0.795 0.523919 1.206 -0.000482893 0.300143 0.895562 1.13136 
0 0.8 0.524999 1.206 -0.000765152 0.300018 0.894454 1.13183 
0 0.805 0.528186 1.206 -0.000650942 0.300104 0.891881 1.13437 
0 0.81 0.530893 1.206 -0.000478011 0.300193 0.889735 1.13656 
0 0.815 0.531985 1.206 -0.000252995 0.300303 0.888984 1.13763 
0 0.82 0.532315 1.206 -0.000165008 0.300328 0.888745 1.13793 
0 0.825 0.532471 1.206 -0.000121209 0.300319 0.888602 1.13802 
0 0.83 0.532532 1.206 -0.00017336 0.300286 0.888502 1.13798 
0 0.835 0.53244 1.206 -0.000496238 0.300162 0.888396 1.1376 
0 0.84 0.532226 1.206 -0.00102887 0.299961 0.888278 1.13695 
0 0.845 0.532085 1.206 -0.00137862 0.299836 0.888209 1.13653 
0 0.85 0.532169 1.206 -0.00126546 0.2999 0.888234 1.13675 
0 0.855 0.532479 1.206 -0.00069281 0.300147 0.888342 1.1376 
0 0.86 0.532766 1.206 -0.000140656 0.300373 0.888437 1.13837 
0 0.865 0.532777 1.206 -6.83068e-05 0.300379 0.888435 1.13839 
0 0.87 0.532607 1.206 -0.0003304 0.300237 0.888367 1.13791 
0 0.875 0.532451 1.206 -0.000623627 0.300104 0.888302 1.13747 
0 0.88 0.532451 1.206 -0.000671932 0.300099 0.888294 1.13746 
0 0.885 0.53254 1.206 -0.000549029 0.300175 0.888331 1.13771 
0 0.89 0.532638 1.206 -0.000379431 0.300266 0.888385 1.13801 
0 0.895 0.532695 1.206 -0.000246398 0.300327 0.888428 1.1382 
0 0.9 0.532714 1.206 -0.000164924 0.300346 0.88844 1.13827 
0 0.905 0.532707 1.206 -0.00015271 0.300329 0.88842 1.13822 
0 0.91 0.532635 1.206 -0.000311522 0.300259 0.888376 1.13799 
0 0.915 0.532447 1.206 -0.000739554 0.300102 0.888302 1.13746 
0 0.92 0.532225 1.206 -0.0012276 0.299924 0.888223 1.13685 
0 0.925 0.532144 1.206 -0.00142553 0.299865 0.888204 1.13665 
0 0.93 0.532321 1.206 -0.00109712 0.300017 0.888281 1.13716 
0 0.935 0.532644 1.206 -0.00045057 0.300286 0.888409 1.13806 
0 0.94 0.532795 1.206 -0.000107257 0.300409 0.888465 1.13848 
0 0.945 0.532703 1.206 -0.00022567 0.30033 0.888424 1.13822 
0 0.95 0.532539 1.206 -0.00050812 0.300186 0.888349 1.13774 
0 0.955 0.53245 1.206 -0.000711031 0.300104 0.888302 1.13747 
0 0.96 0.532486 1.206 -0.00069521 0.300131 0.888311 1.13756 
0 0.965 0.532581 1.206 -0.000548514 0.300215 0.888357 1.13784 
0 0.97 0.532668 1.206 -0.000370613 0.300299 0.888408 1.13811 
0 0.975 0.532727 1.206 -0.000228027 0.300349 0.888434 1.13828 
0 0.98 0.532758 1.206 -0.000160992 0.300364 0.888429 1.13834 
0 0.985 0.532735 1.206 -0.000202866 0.300334 0.888405 1.13825 
0 0.99 0.532584 1.206 -0.000512319 0.30022 0.888362 1.13786 
0 0.995 0.532223 1.206 -0.00118356 0.299949 0.888261 1.13691 
0 1 0.532397 1.206 -0.00111674 0.300042 0.888254 1.13727 
0.005 0 0.138 1.206 1.206 0.029 0.542405 0.273212 
0.005 0.005 0.138 1.206 1.206 0.029 0.542405 0.273212 
0.005 0.01 0.138 1.206 1.206 0.029 0.542405 0.273212 
0.005 0.015 0.138 1.206 1.206 0.029 0.542405 0.273212 
0.005 0.02 0.138 1.206 1.206 0.029 0.542405 0.273212 
0.005 0.025 0.138 1.206 1.206 0.029 0.542405 0.273212 
0.005 0.03 0.138 1.206 1.206 0.029 0.542405 0.273212 
0.005 0.035 0.138 1.206 1.206 0.029 0.542405 0.273212 
0.005 0.04 0.138 1.206 1.206 0.029 0.542405 0.273212 
0.005 0.045 0.138 1.206 1.206 0.029 0.542405 0.273212 
0.005 0.05 0.138 1.206 1.206 0.029 0.542405 0.273212 
0.005 0.055 0.138 1.206 1.206 0.029 0.542405 0.273212 
0.005 0.06 0.138 1.206 1.206 0.029 0.542405 0.273212 
0.005 0.065 0.138 1.206 1.206 0.029 0.542405 0.273212 
0.005 0.07 0.138 1.206 1.206 0.029 0.542405 0.273212 
0.005 0.075 0.138 1.206 1.206 0.029 0.542405 0.273212 
0.005 0.08 0.138 1.206 1.206 0.029 0.542405 0.273212 
0.005 0.085 0.138 1.206 1.206 0.029 0.542405 0.273212 
0.005 0.09 0.138 1.206 1.206 0.029 0.542405 0.273212 
0.005 0.095 0.138 1.206 1.206 0.029 0.542405 0.273212 
0.005 0.1 0.138 1.206 1.206 0.029 0.542405 0.273212 
0.005 0.105 0.138 1.206 1.206 0.029 0.542405 0.273212 
0.005 0.11 0.138 1.206 1.206 0.029 0.542405 0.273212 
0.005 0.115 0.138 1.206 1.206 0.029 0.542405 0.273212 
0.005 0.12 0.138 1.206 1.206 0.029 0.542405 0.273212 
0.005 0.125 0.138 1.206 1.206 0.029 0.542405 0.273212 
0.005 0.13 0.138 1.206 1.206 0.029 0.542405 0.273212 
0.005 0.135 0.138 1.206 1.206 0.029 0.542405 0.273212 
0.005 0.14 0.138 1.206 1.206 0.029 0.542405 0.273212 
0.005 0.145 0.138 1.206 1.206 0.029 0.542405 0.273212 
0.005 0.15 0.138 1.206 1.206 0.029 0.542405 0.273212 
0.005 0.155 0.138 1.206 1.206 0.029 0.542405 0.273212 
0.005 0.16 0.138 1.206 1.206 0.029 0.542405 0.273212 
0.005 0.165 0.138 1.206 1.206 0.029 0.542405 0.273212 
0.005 0.17 0.138 1.206 1.206 0.029 0.542405 0.273212 
0.005 0.175 0.138 1.206 1.206 0.029 0.542405 0.273212 
0.005 0.18 0.138 1.206 1.206 0.029 0.542405 0.273212 
0.005 0.185 0.138 1.206 1.206 0.029 0.542405 0.273212 
0.005 0.19 0.138 1.206 1.206 0.029 0.542405 0.273212 
0.005 0.195 0.138 1.206 1.206 0.029 0.542405 0.273212 
0.005 0.2 0.138 1.206 1.206 0.029 0.542405 0.273212 
0.005 0.205 0.138 1.206 1.206 0.029 0.542405 0.273212 
0.005 0.21 0.138 1.206 1.206 0.029 0.542405 0.273212 
0.005 0.215 0.138 1.206 1.206 0.029 0.542405 0.273212 
0.005 0.22 0.138 1.206 1.206 0.029 0.542405 0.273212 
0.005 0.225 0.138 1.206 1.206 0.029 0.542405 0.273212 
0.005 0.23 0.138 1.206 1.206 0.029 0.542405 0.273212 
0.005 0.235 0.138 1.206 1.206 0.029 0.542405 0.273212 
0.005 0.24 0.138 1.206 1.206 0.029 0.542405 0.273212 
0.005 0.245 0.138 1.206 1.206 0.029 0.542405 0.273212 
0.005 0.25 0.138 1.206 1.206 0.029 0.542405 0.273212 
0.005 0.255 0.138 1.206 1.206 0.029 0.542405 0.273212 
0.005 0.26 0.138 1.206 1.206 0.029 0.542405 0.273212 
0.005 0.265 0.138 1.206 1.206 0.029 0.542405 0.273212 
0.005 0.27 0.138 1.206 1.206 0.029 0.542405 0.273212 
0.005 0.275 0.138 1.206 1.206 0.029 0.542405 0.273212 
0.005 0.28 0.138 1.206 1.206 0.029 0.542405 0.273212 
0.005 0.285 0.138 1.206 1.206 0.029 0.542405 0.273212 
0.005 0.29 0.138 1.206 1.206 0.029 0.542405 0.273212 
0.005 0.295 0.138 1.206 1.206 0.029 0.542405 0.273212 
0.005 0.3 0.138 1.206 1.206 0.029 0.542405 0.273212 
0.005 0.305 0.138 1.206 1.206 0.029 0.542405 0.273212 
0.005 0.31 0.138 1.206 1.206 0.029 0.542405 0.273212 
0.005 0.315 0.138 1.206 1.206 0.029 0.542405 0.273212 
0.005 0.32 0.138 1.206 1.206 0.029 0.542405 0.273212 
0.005 0.325 0.138 1.206 1.206 0.029 0.542405 0.273212 
0.005 0.33 0.138 1.206 1.206 0.029 0.542405 0.273212 
0.005 0.335 0.138 1.206 1.206 0.029 0.542405 0.273212 
0.005 0.34 0.138 1.206 1.206 0.029 0.542405 0.273212 
0.005 0.345 0.138 1.206 1.206 0.029 0.542405 0.273212 
0.005 0.35 0.138 1.206 1.206 0.029 0.542405 0.273212 
0.005 0.355 0.138 1.206 1.206 0.029 0.542405 0.273212 
0.005 0.36 0.138 1.206 1.206 0.029 0.542405 0.273212 
0.005 0.365 0.138 1.206 1.206 0.029 0.542405 0.273212 
0.005 0.37 0.138 1.206 1.206 0.029 0.542405 0.273212 
0.005 0.375 0.138 1.206 1.206 0.029 0.542405 0.273212 
0.005 0.38 0.138 1.206 1.206 0.029 0.542405 0.273212 
0.005 0.385 0.138 1.206 1.206 0.029 0.542405 0.273212 
0.005 0.39 0.138 1.206 1.206 0.029 0.542405 0.273212 
0.005 0.395 0.138 1.206 1.206 0.029 0.542405 0.273212 
0.005 0.4 0.138 1.206 1.206 0.029 0.542405 0.273212 
0.005 0.405 0.138 1.206 1.206 0.029 0.542405 0.273212 
0.005 0.41 0.138 1.206 1.206 0.029 0.542405 0.273212 
0.005 0.415 0.138 1.206 1.206 0.029 0.542405 0.273212 
0.005 0.42 0.138 1.206 1.206 0.029 0.542405 0.273212 
0.005 0.425 0.138 1.206 1.206 0.029 0.542405 0.273212 
0.005 0.43 0.138 1.206 1.206 0.029 0.542405 0.273212 
0.005 0.435 0.138 1.206 1.206 0.0290002 0.542405 0.273213 
0.005 0.44 0.138008 1.206 1.20595 0.029003 0.542417 0.273223 
0.005 0.445 0.138145 1.206 1.2051 0.0290572 0.542655 0.273416 
0.005 0.45 0.140221 1.206 1.18968 0.030064 0.547874 0.276362 
0.005 0.455 0.166357 1.206 0.999266 0.0475062 0.632293 0.3228 
0.005 0.46 0.377052 1.206 0.243782 0.19361 0.847866 0.769427 
0.005 0.465 0.521707 1.206 0.00597545 0.292278 0.885623 1.1101 
0.005 0.47 0.532211 1.206 -0.00105997 0.29999 0.888332 1.13701 
0.005 0.475 0.533819 1.206 0.00208768 0.30111 0.888648 1.14098 
0.005 0.48 0.534438 1.206 0.00285087 0.301528 0.888748 1.14247 
0.005 0.485 0.5328 1.206 -0.000179178 0.300186 0.888132 1.13793 
0.005 0.49 0.530964 1.206 -0.00299378 0.298787 0.88759 1.1331 
0.005 0.495 0.531751 1.206 -0.00220751 0.29936 0.887783 1.1351 
0.005 0.5 0.532942 1.206 -0.000336688 0.300341 0.888242 1.13842 
0.005 0.505 0.533525 1.206 0.000456429 0.30081 0.888449 1.14001 
0.005 0.51 0.533313 1.206 -0.000189066 0.300638 0.888373 1.13943 
0.005 0.515 0.532857 1.206 -0.00104334 0.300285 0.888231 1.13822 
0.005 0.52 0.53303 1.206 -0.000877937 0.300395 0.888248 1.13862 
0.005 0.525 0.533369 1.206 -0.000128566 0.300678 0.888385 1.13957 
0.005 0.53 0.53318 1.206 -0.000191746 0.300545 0.888346 1.1391 
0.005 0.535 0.532161 1.206 -0.00164017 0.299723 0.887979 1.13631 
0.005 0.54 0.531548 1.206 -0.00255998 0.299228 0.887757 1.13462 
0.005 0.545 0.532339 1.206 -0.00125665 0.299835 0.887996 1.13672 
0.005 0.55 0.533147 1.206 0.000562117 0.300543 0.88837 1.13907 
0.005 0.555 0.533699 1.206 0.00143629 0.300959 0.888526 1.14051 
0.005 0.56 0.533232 1.206 0.000304734 0.300532 0.888283 1.13911 
0.005 0.565 0.531793 1.206 -0.00152805 0.299463 0.8879 1.13539 
0.005 0.57 0.532049 1.206 -0.00131514 0.299623 0.887923 1.13597 
0.005 0.575 0.532618 1.206 -0.000377964 0.300057 0.888092 1.13747 
0.005 0.58 0.53282 1.206 8.89951e-06 0.30023 0.88818 1.13805 
0.005 0.585 0.532822 1.206 1.73502e-05 0.300242 0.888195 1.13808 
0.005 0.59 0.532805 1.206 -9.58202e-06 0.300242 0.88821 1.13807 
0.005 0.595 0.532786 1.206 -4.84878e-05 0.300237 0.888219 1.13805 
0.005 0.6 0.532778 1.206 -0.000119547 0.300227 0.88821 1.13801 
0.005 0.605 0.532695 1.206 -0.00031876 0.300148 0.888163 1.13775 
0.005 0.61 0.532292 1.206 -0.00104277 0.299826 0.888022 1.13666 
0.005 0.615 0.531965 1.206 -0.00165003 0.299563 0.887905 1.13576 
0.005 0.62 0.532322 1.206 -0.00113664 0.299832 0.888005 1.13669 
0.005 0.625 0.532934 1.206 -5.68039e-05 0.300328 0.888229 1.13838 
0.005 0.63 0.533228 1.206 0.000605716 0.300579 0.888356 1.13922 
0.005 0.635 0.533128 1.206 0.000226098 0.300465 0.888271 1.13886 
0.005 0.64 0.532391 1.206 -0.000764941 0.299908 0.888061 1.13693 
0.005 0.645 0.532356 1.206 -0.000948503 0.299862 0.888021 1.13679 
0.005 0.65 0.532549 1.206 -0.000660701 0.300014 0.888087 1.13732 
0.005 0.655 0.532789 1.206 -0.000275006 0.300212 0.888179 1.13798 
0.005 0.66 0.532875 1.206 -0.000117254 0.30029 0.888223 1.13824 
0.005 0.665 0.53288 1.206 -9.7176e-05 0.300297 0.888228 1.13826 
0.005 0.67 0.532871 1.206 -0.000108614 0.300284 0.888217 1.13822 
0.005 0.675 0.532841 1.206 -0.000157936 0.300253 0.888195 1.13812 
0.005 0.68 0.532737 1.206 -0.000369491 0.30017 0.888161 1.13784 
0.005 0.685 0.532422 1.206 -0.000950641 0.299923 0.888057 1.13699 
0.005 0.69 0.532131 1.206 -0.00148618 0.299694 0.887961 1.13621 
0.005 0.695 0.532245 1.206 -0.00133671 0.299783 0.887998 1.13652 
0.005 0.7 0.532793 1.206 -0.000489447 0.300201 0.88816 1.13796 
0.005 0.705 0.533119 1.206 0.000177938 0.300471 0.888287 1.13887 
0.005 0.71 0.533137 1.206 0.000173079 0.30047 0.888271 1.13888 
0.005 0.715 0.53274 1.206 -0.000323704 0.300165 0.88815 1.13783 
0.005 0.72 0.532479 1.206 -0.000741762 0.29996 0.888064 1.13713 
0.005 0.725 0.532548 1.206 -0.000684658 0.300011 0.888081 1.13731 
0.005 0.73 0.532722 1.206 -0.000476671 0.300145 0.888136 1.13777 
0.005 0.735 0.532892 1.206 -0.000264313 0.300269 0.888178 1.1382 
0.005 0.74 0.532971 1.206 -0.00015417 0.300313 0.888177 1.13837 
0.005 0.745 0.532993 1.206 -0.000119115 0.300308 0.88815 1.13837 
0.005 0.75 0.53298 1.206 -0.000127888 0.300281 0.888122 1.1383 
0.005 0.755 0.532902 1.206 -0.000262553 0.300226 0.888106 1.1381 
0.005 0.76 0.532636 1.206 -0.000708508 0.300054 0.888071 1.13748 
0.005 0.765 0.53222 1.206 -0.00134054 0.299795 0.888036 1.13653 
0.005 0.77 0.532051 1.206 -0.00150569 0.299761 0.888127 1.13632 
0.005 0.775 0.532201 1.206 -0.000851655 0.300077 0.88847 1.13722 
0.005 0.78 0.531596 1.206 -0.000138046 0.300333 0.889354 1.13742 
0.005 0.785 0.529091 1.206 9.67691e-05 0.300427 0.891597 1.13583 
0.005 0.79 0.525672 1.206 -0.000103982 0.300313 0.894321 1.13306 
0.005 0.795 0.523919 1.206 -0.000482893 0.300143 0.895562 1.13136 
0.005 0.8 0.524999 1.206 -0.000765152 0.300018 0.894454 1.13183 
0.005 0.805 0.528186 1.206 -0.000650942 0.300104 0.891881 1.13437 
0.005 0.81 0.530893 1.206 -0.000478011 0.300193 0.889735 1.13656 
0.005 0.815 0.531985 1.206 -0.000252995 0.300303 0.888984 1.13763 
0.005 0.82 0.532315 1.206 -0.000165008 0.300328 0.888745 1.13793 
0.005 0.825 0.532471 1.206 -0.000121209 0.300319 0.888602 1.13802 
0.005 0.83 0.532532 1.206 -0.00017336 0.300286 0.888502 1.13798 
0.005 0.835 0.53244 1.206 -0.000496238 0.300162 0.888396 1.1376 
0.005 0.84 0.532226 1.206 -0.00102887 0.299961 0.888278 1.13695 
0.005 0.845 0.532085 1.206 -0.00137862 0.299836 0.888209 1.13653 
0.005 0.85 0.532169 1.206 -0.00126546 0.2999 0.888234 1.13675 
0.005 0.855 0.532479 1.206 -0.00069281 0.300147 0.888342 1.1376 
0.005 0.86 0.532766 1.206 -0.000140656 0.300373 0.888437 1.13837 
0.005 0.865 0.532777 1.206 -6.83068e-05 0.300379 0.888435 1.13839 
0.005 0.87 0.532607 1.206 -0.0003304 0.300237 0.888367 1.13791 
0.005 0.875 0.532451 1.206 -0.000623627 0.300104 0.888302 1.13747 
0.005 0.88 0.532451 1.206 -0.000671932 0.300099 0.888294 1.13746 
0.005 0.885 0.53254 1.206 -0.000549029 0.300175 0.888331 1.13771 
0.005 0.89 0.532638 1.206 -0.000379431 0.300266 0.888385 1.13801 
0.005 0.895 0.532695 1.206 -0.000246398 0.300327 0.888428 1.1382 
0.005 0.9 0.532714 1.206 -0.000164924 0.300346 0.88844 1.13827 
0.005 0.905 0.532707 1.206 -0.00015271 0.300329 0.88842 1.13822 
0.005 0.91 0.532635 1.206 -0.000311522 0.300259 0.888376 1.13799 
0.005 0.915 0.532447 1.206 -0.000739554 0.300102 0.888302 1.13746 
0.005 0.92 0.532225 1.206 -0.0012276 0.299924 0.888223 1.13685 
0.005 0.925 0.532144 1.206 -0.00142553 0.299865 0.888204 1.13665 
0.005 0.93 0.532321 1.206 -0.00109712 0.300017 0.888281 1.13716 
0.005 0.935 0.532644 1.206 -0.00045057 0.300286 0.888409 1.13806 
0.005 0.94 0.532795 1.206 -0.000107257 0.300409 0.888465 1.13848 
0.005 0.945 0.532703 1.206 -0.00022567 0.30033 0.888424 1.13822 
0.005 0.95 0.532539 1.206 -0.00050812 0.300186 0.888349 1.13774 
0.005 0.955 0.53245 1.206 -0.000711031 0.300104 0.888302 1.13747 
0.005 0.96 0.532486 1.206 -0.00069521 0.300131 0.888311 1.13756 
0.005 0.965 0.532581 1.206 -0.000548514 0.300215 0.888357 1.13784 
0.005 0.97 0.532668 1.206 -0.000370613 0.300299 0.888408 1.13811 
0.005 0.975 0.532727 1.206 -0.000228027 0.300349 0.888434 1.13828 
0.005 0.98 0.532758 1.206 -0.000160992 0.300364 0.888429 1.13834 
0.005 0.985 0.532735 1.206 -0.000202866 0.300334 0.888405 1.13825 
0.005 0.99 0.532584 1.206 -0.000512319 0.30022 0.888362 1.13786 
0.005 0.995 0.532223 1.206 -0.00118356 0.299949 0.888261 1.13691 
0.005 1 0.532397 1.206 -0.00111674 0.300042 0.888254 1.13727 
0.01 0 0.138 1.206 1.206 0.029 0.542405 0.273212 
0.01 0.005 0.138 1.206 1.206 0.029 0.542405 0.273212 
0.01 0.01 0.138 1.206 1.206 0.029 0.542405 0.273212 
0.01 0.015 0.138 1.206 1.206 0.029 0.542405 0.273212 
0.01 0.02 0.138 1.206 1.206 0.029 0.542405 0.273212 
0.01 0.025 0.138 1.206 1.206 0.029 0.542405 0.273212 
0.01 0.03 0.138 1.206 1.206 0.029 0.542405 0.273212 
0.01 0.035 0.138 1.206 1.206 0.029 0.542405 0.273212 
0.01 0.04 0.138 1.206 1.206 0.029 0.542405 0.273212 
0.01 0.045 0.138 1.206 1.206 0.029 0.542405 0.273212 
0.01 0.05 0.138 1.206 1.206 0.029 0.542405 0.273212 
0.01 0.055 0.138 1.206 1.206 0.029 0.542405 0.273212 
0.01 0.06 0.138 1.206 1.206 0.029 0.542405 0.273212 
0.01 0.065 0.138 1.206 1.206 0.029 0.542405 0.273212 
0.01 0.07 0.138 1.206 1.206 0.029 0.542405 0.273212 
0.01 0.075 0.138 1.206 1.206 0.029 0.542405 0.273212 
0.01 0.08 0.138 1.206 1.206 0.029 0.542405 0.273212 
0.01 0.085 0.138 1.206 1.206 0.029 0.542405 0.273212 
0.01 0.09 0.138 1.206 1.206 0.029 0.542405 0.273212 
0.01 0.095 0.138 1.206 1.206 0.029 0.542405 0.273212 
0.01 0.1 0.138 1.206 1.206 0.029 0.542405 0.273212 
0.01 0.105 0.138 1.206 1.206 0.029 0.542405 0.273212 
0.01 0.11 0.138 1.206 1.206 0.029 0.542405 0.273212 
0.01 0.115 0.138 1.206 1.206 0.029 0.542405 0.273212 
0.01 0.12 0.138 1.206 1.206 0.029 0.542405 0.273212 
0.01 0.125 0.138 1.206 1.206 0.029 0.542405 0.273212 
0.01 0.13 0.138 1.206 1.206 0.029 0.542405 0.273212 
0.01 0.135 0.138 1.206 1.206 0.029 0.542405 0.273212 
0.01 0.14 0.138 1.206 1.206 0.029 0.542405 0.273212 
0.01 0.145 0.138 1.206 1.206 0.029 0.542405 0.273212 
0.01 0.15 0.138 1.206 1.206 0.029 0.542405 0.273212 
0.01 0.155 0.138 1.206 1.206 0.029 0.542405 0.273212 
0.01 0.16 0.138 1.206 1.206 0.029 0.542405 0.273212 
0.01 0.165 0.138 1.206 1.206 0.029 0.542405 0.273212 
0.01 0.17 0.138 1.206 1.206 0.029 0.542405 0.273212 
0.01 0.175 0.138 1.206 1.206 0.029 0.542405 0.273212 
0.01 0.18 0.138 1.206 1.206 0.029 0.542405 0.273212 
0.01 0.185 0.138 1.206 1.206 0.029 0.542405 0.273212 
0.01 0.19 0.138 1.206 1.206 0.029 0.542405 0.273212 
0.01 0.195 0.138 1.206 1.206 0.029 0.542405 0.273212 
0.01 0.2 0.138 1.206 1.206 0.029 0.542405 0.273212 
0.01 0.205 0.138 1.206 1.206 0.029 0.542405 0.273212 
0.01 0.21 0.138 1.206 1.206 0.029 0.542405 0.273212 
0.01 0.215 0.138 1.206 1.206 0.029 0.542405 0.273212 
0.01 0.22 0.138 1.206 1.206 0.029 0.542405 0.273212 
0.01 0.225 0.138 1.206 1.206 0.029 0.542405 0.273212 
0.01 0.23 0.138 1.206 1.206 0.029 0.542405 0.273212 
0.01 0.235 0.138 1.206 1.206 0.029 0.542405 0.273212 
0.01 0.24 0.138 1.206 1.206 0.029 0.542405 0.273212 
0.01 0.245 0.138 1.206 1.206 0.029 0.542405 0.273212 
0.01 0.25 0.138 1.206 1.206 0.029 0.542405 0.273212 
0.01 0.255 0.138 1.206 1.206 0.029 0.542405 0.273212 
0.01 0.26 0.138 1.206 1.206 0.029 0.542405 0.273212 
0.01 0.265 0.138 1.206 1.206 0.029 0.542405 0.273212 
0.01 0.27 0.138 1.206 1.206 0.029 0.542405 0.273212 
0.01 0.275 0.138 1.206 1.206 0.029 0.542405 0.273212 
0.01 0.28 0.138 1.206 1.206 0.029 0.542405 0.273212 
0.01 0.285 0.138 1.206 1.206 0.029 0.542405 0.273212 
0.01 0.29 0.138 1.206 1.206 0.029 0.542405 0.273212 
0.01 0.295 0.138 1.206 1.206 0.029 0.542405 0.273212 
0.01 0.3 0.138 1.206 1.206 0.029 0.542405 0.273212 
0.01 0.305 0.138 1.206 1.206 0.029 0.542405 0.273212 
0.01 0.31 0.138 1.206 1.206 0.029 0.542405 0.273212 
0.01 0.315 0.138 1.206 1.206 0.029 0.542405 0.273212 
0.01 0.32 0.138 1.206 1.206 0.029 0.542405 0.273212 
0.01 0.325 0.138 1.206 1.206 0.029 0.542405 0.273212 
0.01 0.33 0.138 1.206 1.206 0.029 0.542405 0.273212 
0.01 0.335 0.138 1.206 1.206 0.029 0.542405 0.273212 
0.01 0.34 0.138 1.206 1.206 0.029 0.542405 0.273212 
0.01 0.345 0.138 1.206 1.206 0.029 0.542405 0.273212 
0.01 0.35 0.138 1.206 1.206 0.029 0.542405 0.273212 
0.01 0.355 0.138 1.206 1.206 0.029 0.542405 0.273212 
0.01 0.36 0.138 1.206 1.206 0.029 0.542405 0.273212 
0.01 0.365 0.138 1.206 1.206 0.029 0.542405 0.273212 
0.01 0.37 0.138 1.206 1.206 0.029 0.542405 0.273212 
0.01 0.375 0.138 1.206 1.206 0.029 0.542405 0.273212 
0.01 0.38 0.138 1.206 1.206 0.029 0.542405 0.273212 
0.01 0.385 0.138 1.206 1.206 0.029 0.542405 0.273212 
0.01 0.39 0.138 1.206 1.206 0.029 0.542405 0.273212 
0.01 0.395 0.138 1.206 1.206 0.029 0.542405 0.273212 
0.01 0.4 0.138 1.206 1.206 0.029 0.542405 0.273212 
0.01 0.405 0.138 1.206 1.206 0.029 0.542405 0.273212 
0.01 0.41 0.138 1.206 1.206 0.029 0.542405 0.273212 
0.01 0.415 0.138 1.206 1.206 0.029 0.542405 0.273212 
0.01 0.42 0.138 1.206 1.206 0.029 0.542405 0.273212 
0.01 0.425 0.138 1.206 1.206 0.029 0.542405 0.273212 
0.01 0.43 0.138 1.206 1.206 0.029 0.542405 0.273212 
0.01 0.435 0.138 1.206 1.206 0.0290002 0.542405 0.273213 
0.01 0.44 0.138008 1.206 1.20595 0.029003 0.542417 0.273223 
0.01 0.445 0.138145 1.206 1.2051 0.0290572 0.542655 0.273416 
0.01 0.45 0.140221 1.206 1.18968 0.030064 0.547874 0.276362 
0.01 0.455 0.166357 1.206 0.999266 0.0475062 0.632293 0.3228 
0.01 0.46 0.377052 1.206 0.243782 0.19361 0.847866 0.769427 
0.01 0.465 0.521707 1.206 0.00597545 0.292278 0.885623 1.1101 
0.01 0.47 0.532211 1.206 -0.00105997 0.29999 0.888332 1.13701 
0.01 0.475 0.533819 1.206 0.00208768 0.30111 0.888648 1.14098 
0.01 0.48 0.534438 1.206 0.00285087 0.301528 0.888748 1.14247 
0.01 0.485 0.5328 1.206 -0.000179178 0.300186 0.888132 1.13793 
0.01 0.49 0.530964 1.206 -0.00299378 0.298787 0.88759 1.1331 
0.01 0.495 0.531751 1.206 -0.00220751 0.29936 0.887783 1.1351 
0.01 0.5 0.532942 1.206 -0.000336688 0.300341 0.888242 1.13842 
0.01 0.505 0.533525 1.206 0.000456429 0.30081 0.888449 1.14001 
0.01 0.51 0.533313 1.206 -0.000189066 0.300638 0.888373 1.13943 
0.01 0.515 0.532857 1.206 -0.00104334 0.300285 0.888231 1.13822 
0.01 0.52 0.53303 1.206 -0.000877937 0.300395 0.888248 1.13862 
0.01 0.525 0.533369 1.206 -0.000128566 0.300678 0.888385 1.13957 
0.01 0.53 0.53318 1.206 -0.000191746 0.300545 0.888346 1.1391 
0.01 0.535 0.532161 1.206 -0.00164017 0.299723 0.887979 1.13631 
0.01 0.54 0.531548 1.206 -0.00255998 0.299228 0.887757 1.13462 
0.01 0.545 0.532339 1.206 -0.00125665 0.299835 0.887996 1.13672 
0.01 0.55 0.533147 1.206 0.000562117 0.300543 0.88837 1.13907 
0.01 0.555 0.533699 1.206 0.00143629 0.300959 0.888526 1.14051 
0.01 0.56 0.533232 1.206 0.000304734 0.300532 0.888283 1.13911 
0.01 0.565 0.531793 1.206 -0.00152805 0.299463 0.8879 1.13539 